
     Program PWSCF v.7.4.1 starts on  9Sep2025 at  8:33:52 

     This program is part of the open-source Quantum ESPRESSO suite
     for quantum simulation of materials; please cite
         "P. Giannozzi et al., J. Phys.:Condens. Matter 21 395502 (2009);
         "P. Giannozzi et al., J. Phys.:Condens. Matter 29 465901 (2017);
         "P. Giannozzi et al., J. Chem. Phys. 152 154105 (2020);
          URL http://www.quantum-espresso.org", 
     in publications or presentations arising from this work. More details at
     http://www.quantum-espresso.org/quote

     Serial version
     8276 MiB available memory on the printing compute node when the environment starts

     Waiting for input...
     Reading input from standard input

     Current dimensions of program PWSCF are:
     Max number of different atomic species (ntypx) = 10
     Max number of k-points (npk) =  40000
     Max angular momentum in pseudopotentials (lmaxx) =  4
     file C.pbe-n-kjpaw_psl.1.0.0.UPF: wavefunction(s)  2S 2P renormalized


     G-vector sticks info
     --------------------
     sticks:   dense  smooth     PW     G-vecs:    dense   smooth      PW
     Sum         223      91     37                16519     4227    1003

     Using Slab Decomposition



     bravais-lattice index     =            4
     lattice parameter (alat)  =       4.6940  a.u.
     unit-cell volume          =     537.4167 (a.u.)^3
     number of atoms/cell      =            2
     number of atomic types    =            1
     number of electrons       =         8.00
     number of Kohn-Sham states=            8
     kinetic-energy cutoff     =      15.0000  Ry
     charge density cutoff     =     150.0000  Ry
     scf convergence threshold =      1.0E-08
     mixing beta               =       0.7000
     number of iterations used =            8  plain     mixing
     Exchange-correlation= SLA  PW   PBX  PBC
                           (   1   4   3   4   0   0   0)

     celldm(1)=   4.694000  celldm(2)=   0.000000  celldm(3)=   6.000000
     celldm(4)=   0.000000  celldm(5)=   0.000000  celldm(6)=   0.000000

     crystal axes: (cart. coord. in units of alat)
               a(1) = (   1.000000   0.000000   0.000000 )  
               a(2) = (  -0.500000   0.866025   0.000000 )  
               a(3) = (   0.000000   0.000000   6.000000 )  

     reciprocal axes: (cart. coord. in units 2 pi/alat)
               b(1) = (  1.000000  0.577350 -0.000000 )  
               b(2) = (  0.000000  1.154701  0.000000 )  
               b(3) = (  0.000000 -0.000000  0.166667 )  


     PseudoPot. # 1 for C  read from file:
     ../../../../../pseudos/C.pbe-n-kjpaw_psl.1.0.0.UPF
     MD5 check sum: 5d2aebdfa2cae82b50a7e79e9516da0f
     Pseudo is Projector augmented-wave + core cor, Zval =  4.0
     Generated using "atomic" code by A. Dal Corso  v.5.1
     Shape of augmentation charge: PSQ
     Using radial grid of 1073 points,  4 beta functions with: 
                l(1) =   0
                l(2) =   0
                l(3) =   1
                l(4) =   1
     Q(r) pseudized with 0 coefficients 


     atomic species   valence    mass     pseudopotential
     C                 4.00    12.01070     C ( 1.00)

     24 Sym. Ops., with inversion, found (12 have fractional translation)



   Cartesian axes

     site n.     atom                  positions (alat units)
         1        C      tau(   1) = (   0.0000000   0.0000000   0.0000000  )
         2        C      tau(   2) = (   0.0000000   0.5773503   0.0000000  )

     number of k points=    12  Gaussian smearing, width (Ry)=  0.0100
                       cart. coord. in units 2pi/alat
        k(    1) = (   0.0000000   0.0000000   0.0000000), wk =   0.0246914
        k(    2) = (   0.0000000   0.1283001   0.0000000), wk =   0.1481481
        k(    3) = (   0.0000000   0.2566001   0.0000000), wk =   0.1481481
        k(    4) = (   0.0000000   0.3849002   0.0000000), wk =   0.1481481
        k(    5) = (   0.0000000   0.5132002   0.0000000), wk =   0.1481481
        k(    6) = (   0.1111111   0.1924501   0.0000000), wk =   0.1481481
        k(    7) = (   0.1111111   0.3207501   0.0000000), wk =   0.2962963
        k(    8) = (   0.1111111   0.4490502   0.0000000), wk =   0.2962963
        k(    9) = (   0.1111111   0.5773503   0.0000000), wk =   0.1481481
        k(   10) = (   0.2222222   0.3849002   0.0000000), wk =   0.1481481
        k(   11) = (   0.2222222   0.5132002   0.0000000), wk =   0.2962963
        k(   12) = (   0.3333333   0.5773503   0.0000000), wk =   0.0493827

     Dense  grid:    16519 G-vectors     FFT dimensions: (  24,  24, 120)

     Smooth grid:     4227 G-vectors     FFT dimensions: (  12,  12,  72)

     Estimated max dynamical RAM per process >      24.11 MB

     Check: negative core charge=   -0.000035

     Initial potential from superposition of free atoms

     starting charge       7.9999, renormalised to       8.0000

     negative rho (up, down):  1.223E-03 0.000E+00
     Starting wfcs are    8 randomized atomic wfcs

     total cpu time spent up to now is        1.1 secs

     Self-consistent Calculation

     iteration #  1     ecut=    15.00 Ry     beta= 0.70
     Davidson diagonalization with overlap
     ethr =  1.00E-02,  avg # of iterations =  7.0

     negative rho (up, down):  2.249E-03 0.000E+00

     total cpu time spent up to now is        1.4 secs

     total energy              =     -36.43636592 Ry
     estimated scf accuracy    <       0.12949381 Ry

     iteration #  2     ecut=    15.00 Ry     beta= 0.70
     Davidson diagonalization with overlap
     ethr =  1.62E-03,  avg # of iterations =  3.0

     negative rho (up, down):  2.555E-03 0.000E+00

     total cpu time spent up to now is        1.7 secs

     total energy              =     -36.44832524 Ry
     estimated scf accuracy    <       0.00383365 Ry

     iteration #  3     ecut=    15.00 Ry     beta= 0.70
     Davidson diagonalization with overlap
     ethr =  4.79E-05,  avg # of iterations =  5.8

     negative rho (up, down):  2.659E-03 0.000E+00

     total cpu time spent up to now is        1.9 secs

     total energy              =     -36.44841911 Ry
     estimated scf accuracy    <       0.00019056 Ry

     iteration #  4     ecut=    15.00 Ry     beta= 0.70
     Davidson diagonalization with overlap
     ethr =  2.38E-06,  avg # of iterations =  5.7

     negative rho (up, down):  2.685E-03 0.000E+00

     total cpu time spent up to now is        2.1 secs

     total energy              =     -36.44842965 Ry
     estimated scf accuracy    <       0.00000032 Ry

     iteration #  5     ecut=    15.00 Ry     beta= 0.70
     Davidson diagonalization with overlap
     ethr =  3.99E-09,  avg # of iterations =  3.3

     negative rho (up, down):  2.694E-03 0.000E+00

     total cpu time spent up to now is        2.4 secs

     total energy              =     -36.44843023 Ry
     estimated scf accuracy    <       0.00000001 Ry

     iteration #  6     ecut=    15.00 Ry     beta= 0.70
     Davidson diagonalization with overlap
     ethr =  1.33E-10,  avg # of iterations =  1.8

     negative rho (up, down):  2.697E-03 0.000E+00

     total cpu time spent up to now is        2.6 secs

     End of self-consistent calculation

          k = 0.0000 0.0000 0.0000 (   497 PWs)   bands (ev):

   -21.9042  -9.2273  -4.0234  -4.0234   1.2431   2.0707   2.2902   4.3691

          k = 0.0000 0.1283 0.0000 (   499 PWs)   bands (ev):

   -21.6063  -8.8985  -5.3194  -4.5740   1.6383   2.4654   2.6873   4.7573

          k = 0.0000 0.2566 0.0000 (   531 PWs)   bands (ev):

   -20.7243  -8.4782  -7.8862  -5.8972   2.8215   3.6484   3.8774   5.9912

          k = 0.0000 0.3849 0.0000 (   537 PWs)   bands (ev):

   -19.2760 -11.6407  -6.9890  -6.2655   3.4469   4.7874   5.3097   5.6485

          k = 0.0000 0.5132 0.0000 (   533 PWs)   bands (ev):

   -17.3631 -14.4152  -7.6065  -4.3612   0.6854   4.9263   7.5272   8.3794

          k = 0.1111 0.1925 0.0000 (   511 PWs)   bands (ev):

   -21.0160  -8.2105  -7.2469  -5.8180   2.4277   3.2563   3.4810   5.5352

          k = 0.1111 0.3208 0.0000 (   524 PWs)   bands (ev):

   -19.8497 -10.0559  -7.3262  -6.8806   4.0035   4.7117   4.9308   5.0675

          k = 0.1111 0.4491 0.0000 (   536 PWs)   bands (ev):

   -18.1468 -12.9768  -8.3602  -5.0333   1.8208   6.3511   6.5032   7.1819

          k = 0.1111 0.5774 0.0000 (   525 PWs)   bands (ev):

   -16.4862 -14.9878  -8.7038  -3.5949   0.0638   6.3093   9.3776   9.5161

          k = 0.2222 0.3849 0.0000 (   531 PWs)   bands (ev):

   -18.4180 -11.7650  -9.5981  -5.2587   2.5345   5.9645   6.7526   7.0473

          k = 0.2222 0.5132 0.0000 (   534 PWs)   bands (ev):

   -16.5443 -13.8939 -10.7032  -3.3757   0.2159   8.6674   8.9098   9.5363

          k = 0.3333 0.5774 0.0000 (   507 PWs)   bands (ev):

   -14.8242 -14.8242 -11.9293  -1.4729  -1.4729   8.6043  11.2009  11.2010

     the Fermi energy is    -1.4729 ev

!    total energy              =     -36.44843024 Ry
     total all-electron energy =      -151.976626 Ry
     estimated scf accuracy    <          6.1E-10 Ry
     smearing contrib. (-TS)   =      -0.00027861 Ry
     internal energy E=F+TS    =     -36.44815163 Ry

     The total energy is F=E-TS. E is the sum of the following terms:
     one-electron contribution =    -152.37838830 Ry
     hartree contribution      =      77.73052882 Ry
     xc contribution           =      -9.13947172 Ry
     ewald contribution        =      59.68301694 Ry
     one-center paw contrib.   =     -12.34383737 Ry

     convergence has been achieved in   6 iterations

     Writing all to output data dir ./tmp/graphene.save/ :
     XML data file, charge density, pseudopotentials, collected wavefunctions

     init_run     :      0.99s CPU      0.97s WALL (       1 calls)
     electrons    :      2.50s CPU      1.48s WALL (       1 calls)

     Called by init_run:
     wfcinit      :      0.18s CPU      0.14s WALL (       1 calls)
     potinit      :      0.32s CPU      0.33s WALL (       1 calls)
     hinit0       :      0.48s CPU      0.48s WALL (       1 calls)

     Called by electrons:
     c_bands      :      0.92s CPU      0.52s WALL (       6 calls)
     sum_band     :      0.28s CPU      0.14s WALL (       6 calls)
     v_of_rho     :      0.39s CPU      0.22s WALL (       7 calls)
     newd         :      0.06s CPU      0.06s WALL (       7 calls)
     PAW_pot      :      0.92s CPU      0.63s WALL (       7 calls)
     mix_rho      :      0.02s CPU      0.01s WALL (       6 calls)

     Called by c_bands:
     init_us_2    :      0.03s CPU      0.02s WALL (     156 calls)
     cegterg      :      0.88s CPU      0.49s WALL (      72 calls)

     Called by *egterg:
     cdiaghg      :      0.08s CPU      0.05s WALL (     390 calls)
     h_psi        :      0.83s CPU      0.47s WALL (     402 calls)
     s_psi        :      0.03s CPU      0.03s WALL (     402 calls)
     g_psi        :      0.01s CPU      0.00s WALL (     318 calls)

     Called by h_psi:
     h_psi:calbec :      0.03s CPU      0.02s WALL (     402 calls)
     vloc_psi     :      0.74s CPU      0.41s WALL (     402 calls)
     add_vuspsi   :      0.05s CPU      0.04s WALL (     402 calls)

     General routines
     calbec       :      0.03s CPU      0.02s WALL (     474 calls)
     fft          :      0.52s CPU      0.47s WALL (      89 calls)
     ffts         :      0.21s CPU      0.21s WALL (      13 calls)
     fftw         :      0.56s CPU      0.33s WALL (    4138 calls)
     interpolate  :      0.21s CPU      0.21s WALL (       7 calls)


     PWSCF        :      3.68s CPU      2.61s WALL


   This run was terminated on:   8:33:54   9Sep2025            

=------------------------------------------------------------------------------=
   JOB DONE.
=------------------------------------------------------------------------------=
