
     Program PWSCF v.7.4.1 starts on  9Sep2025 at  8:41:11 

     This program is part of the open-source Quantum ESPRESSO suite
     for quantum simulation of materials; please cite
         "P. Giannozzi et al., J. Phys.:Condens. Matter 21 395502 (2009);
         "P. Giannozzi et al., J. Phys.:Condens. Matter 29 465901 (2017);
         "P. Giannozzi et al., J. Chem. Phys. 152 154105 (2020);
          URL http://www.quantum-espresso.org", 
     in publications or presentations arising from this work. More details at
     http://www.quantum-espresso.org/quote

     Serial version
     8170 MiB available memory on the printing compute node when the environment starts

     Waiting for input...
     Reading input from standard input

     Current dimensions of program PWSCF are:
     Max number of different atomic species (ntypx) = 10
     Max number of k-points (npk) =  40000
     Max angular momentum in pseudopotentials (lmaxx) =  4
     file C.pbe-n-kjpaw_psl.1.0.0.UPF: wavefunction(s)  2S 2P renormalized


     G-vector sticks info
     --------------------
     sticks:   dense  smooth     PW     G-vecs:    dense   smooth      PW
     Sum         211      85     37                15701     4005     967

     Using Slab Decomposition



     bravais-lattice index     =            4
     lattice parameter (alat)  =       4.6140  a.u.
     unit-cell volume          =     510.4047 (a.u.)^3
     number of atoms/cell      =            2
     number of atomic types    =            1
     number of electrons       =         8.00
     number of Kohn-Sham states=            8
     kinetic-energy cutoff     =      15.0000  Ry
     charge density cutoff     =     150.0000  Ry
     scf convergence threshold =      1.0E-08
     mixing beta               =       0.7000
     number of iterations used =            8  plain     mixing
     Exchange-correlation= SLA  PW   PBX  PBC
                           (   1   4   3   4   0   0   0)

     celldm(1)=   4.614000  celldm(2)=   0.000000  celldm(3)=   6.000000
     celldm(4)=   0.000000  celldm(5)=   0.000000  celldm(6)=   0.000000

     crystal axes: (cart. coord. in units of alat)
               a(1) = (   1.000000   0.000000   0.000000 )  
               a(2) = (  -0.500000   0.866025   0.000000 )  
               a(3) = (   0.000000   0.000000   6.000000 )  

     reciprocal axes: (cart. coord. in units 2 pi/alat)
               b(1) = (  1.000000  0.577350 -0.000000 )  
               b(2) = (  0.000000  1.154701  0.000000 )  
               b(3) = (  0.000000 -0.000000  0.166667 )  


     PseudoPot. # 1 for C  read from file:
     ../../../../../pseudos/C.pbe-n-kjpaw_psl.1.0.0.UPF
     MD5 check sum: 5d2aebdfa2cae82b50a7e79e9516da0f
     Pseudo is Projector augmented-wave + core cor, Zval =  4.0
     Generated using "atomic" code by A. Dal Corso  v.5.1
     Shape of augmentation charge: PSQ
     Using radial grid of 1073 points,  4 beta functions with: 
                l(1) =   0
                l(2) =   0
                l(3) =   1
                l(4) =   1
     Q(r) pseudized with 0 coefficients 


     atomic species   valence    mass     pseudopotential
     C                 4.00    12.01070     C ( 1.00)

     24 Sym. Ops., with inversion, found (12 have fractional translation)



   Cartesian axes

     site n.     atom                  positions (alat units)
         1        C      tau(   1) = (   0.0000000   0.0000000   0.0000000  )
         2        C      tau(   2) = (   0.0000000   0.5773503   0.0000000  )

     number of k points=    12  Gaussian smearing, width (Ry)=  0.0100
                       cart. coord. in units 2pi/alat
        k(    1) = (   0.0000000   0.0000000   0.0000000), wk =   0.0246914
        k(    2) = (   0.0000000   0.1283001   0.0000000), wk =   0.1481481
        k(    3) = (   0.0000000   0.2566001   0.0000000), wk =   0.1481481
        k(    4) = (   0.0000000   0.3849002   0.0000000), wk =   0.1481481
        k(    5) = (   0.0000000   0.5132002   0.0000000), wk =   0.1481481
        k(    6) = (   0.1111111   0.1924501   0.0000000), wk =   0.1481481
        k(    7) = (   0.1111111   0.3207501   0.0000000), wk =   0.2962963
        k(    8) = (   0.1111111   0.4490502   0.0000000), wk =   0.2962963
        k(    9) = (   0.1111111   0.5773503   0.0000000), wk =   0.1481481
        k(   10) = (   0.2222222   0.3849002   0.0000000), wk =   0.1481481
        k(   11) = (   0.2222222   0.5132002   0.0000000), wk =   0.2962963
        k(   12) = (   0.3333333   0.5773503   0.0000000), wk =   0.0493827

     Dense  grid:    15701 G-vectors     FFT dimensions: (  18,  18, 108)

     Smooth grid:     4005 G-vectors     FFT dimensions: (  12,  12,  72)

     Estimated max dynamical RAM per process >      20.82 MB

     Check: negative core charge=   -0.000034

     Initial potential from superposition of free atoms

     starting charge       7.9999, renormalised to       8.0000

     negative rho (up, down):  1.156E-03 0.000E+00
     Starting wfcs are    8 randomized atomic wfcs

     total cpu time spent up to now is        0.9 secs

     Self-consistent Calculation

     iteration #  1     ecut=    15.00 Ry     beta= 0.70
     Davidson diagonalization with overlap
     ethr =  1.00E-02,  avg # of iterations =  6.6

     negative rho (up, down):  2.197E-03 0.000E+00

     total cpu time spent up to now is        1.2 secs

     total energy              =     -36.42295935 Ry
     estimated scf accuracy    <       0.14938786 Ry

     iteration #  2     ecut=    15.00 Ry     beta= 0.70
     Davidson diagonalization with overlap
     ethr =  1.87E-03,  avg # of iterations =  3.6

     negative rho (up, down):  2.516E-03 0.000E+00

     total cpu time spent up to now is        1.4 secs

     total energy              =     -36.43795066 Ry
     estimated scf accuracy    <       0.00394593 Ry

     iteration #  3     ecut=    15.00 Ry     beta= 0.70
     Davidson diagonalization with overlap
     ethr =  4.93E-05,  avg # of iterations =  6.8

     negative rho (up, down):  2.631E-03 0.000E+00

     total cpu time spent up to now is        1.7 secs

     total energy              =     -36.43805490 Ry
     estimated scf accuracy    <       0.00021506 Ry

     iteration #  4     ecut=    15.00 Ry     beta= 0.70
     Davidson diagonalization with overlap
     ethr =  2.69E-06,  avg # of iterations =  3.9

     negative rho (up, down):  2.655E-03 0.000E+00

     total cpu time spent up to now is        1.9 secs

     total energy              =     -36.43806419 Ry
     estimated scf accuracy    <       0.00000030 Ry

     iteration #  5     ecut=    15.00 Ry     beta= 0.70
     Davidson diagonalization with overlap
     ethr =  3.74E-09,  avg # of iterations =  3.5

     negative rho (up, down):  2.663E-03 0.000E+00

     total cpu time spent up to now is        2.1 secs

     total energy              =     -36.43806491 Ry
     estimated scf accuracy    <       0.00000001 Ry

     iteration #  6     ecut=    15.00 Ry     beta= 0.70
     Davidson diagonalization with overlap
     ethr =  1.75E-10,  avg # of iterations =  1.7

     negative rho (up, down):  2.667E-03 0.000E+00

     total cpu time spent up to now is        2.3 secs

     End of self-consistent calculation

          k = 0.0000 0.0000 0.0000 (   485 PWs)   bands (ev):

   -22.0925  -9.3868  -3.8269  -3.8269   1.3499   2.2129   2.4429   4.5924

          k = 0.0000 0.1283 0.0000 (   485 PWs)   bands (ev):

   -21.7853  -9.0034  -5.1472  -4.4769   1.7585   2.6244   2.8537   4.9998

          k = 0.0000 0.2566 0.0000 (   489 PWs)   bands (ev):

   -20.8722  -8.1809  -7.9046  -5.6373   2.9831   3.8513   4.0858   6.1940

          k = 0.0000 0.3849 0.0000 (   501 PWs)   bands (ev):

   -19.3769 -11.5162  -6.8472  -6.1463   3.9230   5.0158   5.9347   6.0282

          k = 0.0000 0.5132 0.0000 (   507 PWs)   bands (ev):

   -17.3857 -14.4451  -7.4990  -4.2260   0.9961   5.6639   7.8496   8.7580

          k = 0.1111 0.1925 0.0000 (   493 PWs)   bands (ev):

   -21.1761  -8.2935  -7.0238  -5.7098   2.5749   3.4424   3.6751   5.8044

          k = 0.1111 0.3208 0.0000 (   504 PWs)   bands (ev):

   -19.9734  -9.9104  -7.2931  -6.8472   4.2046   5.0278   5.3170   5.3253

          k = 0.1111 0.4491 0.0000 (   509 PWs)   bands (ev):

   -18.2095 -12.9043  -8.2964  -4.9229   2.1935   6.6355   7.2692   7.5125

          k = 0.1111 0.5774 0.0000 (   504 PWs)   bands (ev):

   -16.4384 -15.0776  -8.6099  -3.4949   0.3120   7.0666   9.7649   9.9041

          k = 0.2222 0.3849 0.0000 (   511 PWs)   bands (ev):

   -18.4982 -11.6125  -9.5812  -5.2077   2.8971   6.2321   7.0610   7.3662

          k = 0.2222 0.5132 0.0000 (   499 PWs)   bands (ev):

   -16.5379 -13.8190 -10.6555  -3.1765   0.5201   9.0295   9.2897  10.2155

          k = 0.3333 0.5774 0.0000 (   501 PWs)   bands (ev):

   -14.7655 -14.7655 -12.1163  -1.3182  -1.3182   8.9213  11.7072  11.7076

     the Fermi energy is    -1.3182 ev

!    total energy              =     -36.43806492 Ry
     total all-electron energy =      -151.966261 Ry
     estimated scf accuracy    <          6.0E-10 Ry
     smearing contrib. (-TS)   =      -0.00027861 Ry
     internal energy E=F+TS    =     -36.43778631 Ry

     The total energy is F=E-TS. E is the sum of the following terms:
     one-electron contribution =    -154.39564750 Ry
     hartree contribution      =      78.80380010 Ry
     xc contribution           =      -9.21704717 Ry
     ewald contribution        =      60.71783302 Ry
     one-center paw contrib.   =     -12.34672477 Ry

     convergence has been achieved in   6 iterations

     Writing all to output data dir ./tmp/graphene.save/ :
     XML data file, charge density, pseudopotentials, collected wavefunctions

     init_run     :      0.81s CPU      0.81s WALL (       1 calls)
     electrons    :      2.25s CPU      1.33s WALL (       1 calls)

     Called by init_run:
     wfcinit      :      0.16s CPU      0.14s WALL (       1 calls)
     potinit      :      0.29s CPU      0.31s WALL (       1 calls)
     hinit0       :      0.34s CPU      0.34s WALL (       1 calls)

     Called by electrons:
     c_bands      :      0.81s CPU      0.44s WALL (       6 calls)
     sum_band     :      0.23s CPU      0.12s WALL (       6 calls)
     v_of_rho     :      0.17s CPU      0.11s WALL (       7 calls)
     newd         :      0.06s CPU      0.06s WALL (       7 calls)
     PAW_pot      :      1.04s CPU      0.68s WALL (       7 calls)
     mix_rho      :      0.02s CPU      0.01s WALL (       6 calls)

     Called by c_bands:
     init_us_2    :      0.04s CPU      0.03s WALL (     156 calls)
     cegterg      :      0.75s CPU      0.41s WALL (      72 calls)

     Called by *egterg:
     cdiaghg      :      0.08s CPU      0.04s WALL (     384 calls)
     h_psi        :      0.68s CPU      0.41s WALL (     396 calls)
     s_psi        :      0.03s CPU      0.02s WALL (     396 calls)
     g_psi        :      0.01s CPU      0.00s WALL (     312 calls)

     Called by h_psi:
     h_psi:calbec :      0.02s CPU      0.01s WALL (     396 calls)
     vloc_psi     :      0.62s CPU      0.38s WALL (     396 calls)
     add_vuspsi   :      0.03s CPU      0.02s WALL (     396 calls)

     General routines
     calbec       :      0.02s CPU      0.01s WALL (     468 calls)
     fft          :      0.29s CPU      0.27s WALL (      89 calls)
     ffts         :      0.21s CPU      0.21s WALL (      13 calls)
     fftw         :      0.54s CPU      0.33s WALL (    4116 calls)
     interpolate  :      0.21s CPU      0.21s WALL (       7 calls)


     PWSCF        :      3.26s CPU      2.27s WALL


   This run was terminated on:   8:41:13   9Sep2025            

=------------------------------------------------------------------------------=
   JOB DONE.
=------------------------------------------------------------------------------=
