
     Program PWSCF v.7.4.1 starts on  9Sep2025 at  8:34:19 

     This program is part of the open-source Quantum ESPRESSO suite
     for quantum simulation of materials; please cite
         "P. Giannozzi et al., J. Phys.:Condens. Matter 21 395502 (2009);
         "P. Giannozzi et al., J. Phys.:Condens. Matter 29 465901 (2017);
         "P. Giannozzi et al., J. Chem. Phys. 152 154105 (2020);
          URL http://www.quantum-espresso.org", 
     in publications or presentations arising from this work. More details at
     http://www.quantum-espresso.org/quote

     Serial version
     8371 MiB available memory on the printing compute node when the environment starts

     Waiting for input...
     Reading input from standard input

     Current dimensions of program PWSCF are:
     Max number of different atomic species (ntypx) = 10
     Max number of k-points (npk) =  40000
     Max angular momentum in pseudopotentials (lmaxx) =  4
     file C.pbe-n-kjpaw_psl.1.0.0.UPF: wavefunction(s)  2S 2P renormalized


     G-vector sticks info
     --------------------
     sticks:   dense  smooth     PW     G-vecs:    dense   smooth      PW
     Sum         301     121     43                25723     6549    1351

     Using Slab Decomposition



     bravais-lattice index     =            4
     lattice parameter (alat)  =       4.6940  a.u.
     unit-cell volume          =     537.4167 (a.u.)^3
     number of atoms/cell      =            2
     number of atomic types    =            1
     number of electrons       =         8.00
     number of Kohn-Sham states=            8
     kinetic-energy cutoff     =      20.0000  Ry
     charge density cutoff     =     200.0000  Ry
     scf convergence threshold =      1.0E-08
     mixing beta               =       0.7000
     number of iterations used =            8  plain     mixing
     Exchange-correlation= SLA  PW   PBX  PBC
                           (   1   4   3   4   0   0   0)

     celldm(1)=   4.694000  celldm(2)=   0.000000  celldm(3)=   6.000000
     celldm(4)=   0.000000  celldm(5)=   0.000000  celldm(6)=   0.000000

     crystal axes: (cart. coord. in units of alat)
               a(1) = (   1.000000   0.000000   0.000000 )  
               a(2) = (  -0.500000   0.866025   0.000000 )  
               a(3) = (   0.000000   0.000000   6.000000 )  

     reciprocal axes: (cart. coord. in units 2 pi/alat)
               b(1) = (  1.000000  0.577350 -0.000000 )  
               b(2) = (  0.000000  1.154701  0.000000 )  
               b(3) = (  0.000000 -0.000000  0.166667 )  


     PseudoPot. # 1 for C  read from file:
     ../../../../../pseudos/C.pbe-n-kjpaw_psl.1.0.0.UPF
     MD5 check sum: 5d2aebdfa2cae82b50a7e79e9516da0f
     Pseudo is Projector augmented-wave + core cor, Zval =  4.0
     Generated using "atomic" code by A. Dal Corso  v.5.1
     Shape of augmentation charge: PSQ
     Using radial grid of 1073 points,  4 beta functions with: 
                l(1) =   0
                l(2) =   0
                l(3) =   1
                l(4) =   1
     Q(r) pseudized with 0 coefficients 


     atomic species   valence    mass     pseudopotential
     C                 4.00    12.01070     C ( 1.00)

     24 Sym. Ops., with inversion, found (12 have fractional translation)



   Cartesian axes

     site n.     atom                  positions (alat units)
         1        C      tau(   1) = (   0.0000000   0.0000000   0.0000000  )
         2        C      tau(   2) = (   0.0000000   0.5773503   0.0000000  )

     number of k points=    12  Gaussian smearing, width (Ry)=  0.0100
                       cart. coord. in units 2pi/alat
        k(    1) = (   0.0000000   0.0000000   0.0000000), wk =   0.0246914
        k(    2) = (   0.0000000   0.1283001   0.0000000), wk =   0.1481481
        k(    3) = (   0.0000000   0.2566001   0.0000000), wk =   0.1481481
        k(    4) = (   0.0000000   0.3849002   0.0000000), wk =   0.1481481
        k(    5) = (   0.0000000   0.5132002   0.0000000), wk =   0.1481481
        k(    6) = (   0.1111111   0.1924501   0.0000000), wk =   0.1481481
        k(    7) = (   0.1111111   0.3207501   0.0000000), wk =   0.2962963
        k(    8) = (   0.1111111   0.4490502   0.0000000), wk =   0.2962963
        k(    9) = (   0.1111111   0.5773503   0.0000000), wk =   0.1481481
        k(   10) = (   0.2222222   0.3849002   0.0000000), wk =   0.1481481
        k(   11) = (   0.2222222   0.5132002   0.0000000), wk =   0.2962963
        k(   12) = (   0.3333333   0.5773503   0.0000000), wk =   0.0493827

     Dense  grid:    25723 G-vectors     FFT dimensions: (  24,  24, 128)

     Smooth grid:     6549 G-vectors     FFT dimensions: (  15,  15,  81)

     Estimated max dynamical RAM per process >      35.09 MB

     Check: negative core charge=   -0.000025

     Initial potential from superposition of free atoms

     starting charge       7.9999, renormalised to       8.0000

     negative rho (up, down):  5.109E-05 0.000E+00
     Starting wfcs are    8 randomized atomic wfcs

     total cpu time spent up to now is        0.8 secs

     Self-consistent Calculation

     iteration #  1     ecut=    20.00 Ry     beta= 0.70
     Davidson diagonalization with overlap
     ethr =  1.00E-02,  avg # of iterations =  6.1

     negative rho (up, down):  4.495E-05 0.000E+00

     total cpu time spent up to now is        1.1 secs

     total energy              =     -36.72573248 Ry
     estimated scf accuracy    <       0.15757591 Ry

     iteration #  2     ecut=    20.00 Ry     beta= 0.70
     Davidson diagonalization with overlap
     ethr =  1.97E-03,  avg # of iterations =  4.8

     negative rho (up, down):  7.417E-05 0.000E+00

     total cpu time spent up to now is        1.4 secs

     total energy              =     -36.74716566 Ry
     estimated scf accuracy    <       0.00243024 Ry

     iteration #  3     ecut=    20.00 Ry     beta= 0.70
     Davidson diagonalization with overlap
     ethr =  3.04E-05,  avg # of iterations =  7.1

     negative rho (up, down):  1.300E-04 0.000E+00

     total cpu time spent up to now is        1.7 secs

     total energy              =     -36.74729843 Ry
     estimated scf accuracy    <       0.00016577 Ry

     iteration #  4     ecut=    20.00 Ry     beta= 0.70
     Davidson diagonalization with overlap
     ethr =  2.07E-06,  avg # of iterations =  4.3

     negative rho (up, down):  9.392E-05 0.000E+00

     total cpu time spent up to now is        2.0 secs

     total energy              =     -36.74730674 Ry
     estimated scf accuracy    <       0.00000031 Ry

     iteration #  5     ecut=    20.00 Ry     beta= 0.70
     Davidson diagonalization with overlap
     ethr =  3.91E-09,  avg # of iterations =  3.4

     negative rho (up, down):  9.061E-05 0.000E+00

     total cpu time spent up to now is        2.2 secs

     total energy              =     -36.74730734 Ry
     estimated scf accuracy    <       0.00000002 Ry

     iteration #  6     ecut=    20.00 Ry     beta= 0.70
     Davidson diagonalization with overlap
     ethr =  2.63E-10,  avg # of iterations =  2.0

     negative rho (up, down):  9.040E-05 0.000E+00

     total cpu time spent up to now is        2.5 secs

     End of self-consistent calculation

          k = 0.0000 0.0000 0.0000 (   839 PWs)   bands (ev):

   -21.4255  -9.2763  -4.8271  -4.8271   1.0910   1.8449   2.0884   4.1443

          k = 0.0000 0.1283 0.0000 (   828 PWs)   bands (ev):

   -21.1324  -8.9225  -5.9309  -5.3578   1.4869   2.2419   2.4842   4.5357

          k = 0.0000 0.2566 0.0000 (   816 PWs)   bands (ev):

   -20.2627  -8.4941  -7.8777  -6.4857   2.6731   3.4285   3.6708   5.6803

          k = 0.0000 0.3849 0.0000 (   808 PWs)   bands (ev):

   -18.8418 -11.4189  -7.4887  -6.2875   3.1734   4.6424   5.4248   5.5564

          k = 0.0000 0.5132 0.0000 (   802 PWs)   bands (ev):

   -16.9523 -14.1919  -8.0351  -4.4449   0.5076   5.2400   7.3909   8.1621

          k = 0.1111 0.1925 0.0000 (   829 PWs)   bands (ev):

   -20.5547  -8.2341  -7.5065  -6.4741   2.2777   3.0338   3.2753   5.3140

          k = 0.1111 0.3208 0.0000 (   805 PWs)   bands (ev):

   -19.4081  -9.9474  -7.8545  -6.9026   3.8571   4.4228   4.6605   4.8566

          k = 0.1111 0.4491 0.0000 (   801 PWs)   bands (ev):

   -17.7359 -12.7339  -8.7417  -5.0988   1.6148   6.2102   6.6705   6.9646

          k = 0.1111 0.5774 0.0000 (   814 PWs)   bands (ev):

   -16.0539 -14.8461  -9.0498  -3.7846  -0.1196   6.4808   9.2597   9.3594

          k = 0.2222 0.3849 0.0000 (   803 PWs)   bands (ev):

   -18.0096 -11.5309  -9.8786  -5.3308   2.2262   5.8224   6.5410   6.8289

          k = 0.2222 0.5132 0.0000 (   807 PWs)   bands (ev):

   -16.1728 -13.6492 -10.8816  -3.4911  -0.0034   8.5288   8.8251   9.4483

          k = 0.3333 0.5774 0.0000 (   798 PWs)   bands (ev):

   -14.5236 -14.5236 -12.1917  -1.7006  -1.7006   8.6926  10.9699  10.9702

     the Fermi energy is    -1.7006 ev

!    total energy              =     -36.74730736 Ry
     total all-electron energy =      -152.275503 Ry
     estimated scf accuracy    <          5.3E-10 Ry
     smearing contrib. (-TS)   =      -0.00027861 Ry
     internal energy E=F+TS    =     -36.74702875 Ry

     The total energy is F=E-TS. E is the sum of the following terms:
     one-electron contribution =    -152.90773009 Ry
     hartree contribution      =      78.02231636 Ry
     xc contribution           =      -9.20555401 Ry
     ewald contribution        =      59.68301694 Ry
     one-center paw contrib.   =     -12.33907795 Ry

     convergence has been achieved in   6 iterations

     Writing all to output data dir ./tmp/graphene.save/ :
     XML data file, charge density, pseudopotentials, collected wavefunctions

     init_run     :      0.66s CPU      0.66s WALL (       1 calls)
     electrons    :      2.93s CPU      1.71s WALL (       1 calls)

     Called by init_run:
     wfcinit      :      0.09s CPU      0.06s WALL (       1 calls)
     potinit      :      0.16s CPU      0.18s WALL (       1 calls)
     hinit0       :      0.39s CPU      0.39s WALL (       1 calls)

     Called by electrons:
     c_bands      :      1.23s CPU      0.68s WALL (       6 calls)
     sum_band     :      0.40s CPU      0.20s WALL (       6 calls)
     v_of_rho     :      0.39s CPU      0.24s WALL (       7 calls)
     newd         :      0.08s CPU      0.08s WALL (       7 calls)
     PAW_pot      :      0.89s CPU      0.59s WALL (       7 calls)
     mix_rho      :      0.02s CPU      0.01s WALL (       6 calls)

     Called by c_bands:
     init_us_2    :      0.05s CPU      0.03s WALL (     156 calls)
     cegterg      :      1.15s CPU      0.64s WALL (      72 calls)

     Called by *egterg:
     cdiaghg      :      0.09s CPU      0.05s WALL (     404 calls)
     h_psi        :      0.97s CPU      0.55s WALL (     416 calls)
     s_psi        :      0.03s CPU      0.02s WALL (     416 calls)
     g_psi        :      0.01s CPU      0.01s WALL (     332 calls)

     Called by h_psi:
     h_psi:calbec :      0.03s CPU      0.02s WALL (     416 calls)
     vloc_psi     :      0.88s CPU      0.49s WALL (     416 calls)
     add_vuspsi   :      0.04s CPU      0.04s WALL (     416 calls)

     General routines
     calbec       :      0.04s CPU      0.03s WALL (     488 calls)
     fft          :      0.41s CPU      0.37s WALL (      89 calls)
     ffts         :      0.06s CPU      0.06s WALL (      13 calls)
     fftw         :      0.69s CPU      0.39s WALL (    4212 calls)
     interpolate  :      0.06s CPU      0.06s WALL (       7 calls)


     PWSCF        :      3.80s CPU      2.50s WALL


   This run was terminated on:   8:34:21   9Sep2025            

=------------------------------------------------------------------------------=
   JOB DONE.
=------------------------------------------------------------------------------=
