
     Program PWSCF v.7.4.1 starts on  9Sep2025 at 17: 2:35 

     This program is part of the open-source Quantum ESPRESSO suite
     for quantum simulation of materials; please cite
         "P. Giannozzi et al., J. Phys.:Condens. Matter 21 395502 (2009);
         "P. Giannozzi et al., J. Phys.:Condens. Matter 29 465901 (2017);
         "P. Giannozzi et al., J. Chem. Phys. 152 154105 (2020);
          URL http://www.quantum-espresso.org", 
     in publications or presentations arising from this work. More details at
     http://www.quantum-espresso.org/quote

     Serial version
     21892 MiB available memory on the printing compute node when the environment starts

     Waiting for input...
     Reading input from standard input

     Current dimensions of program PWSCF are:
     Max number of different atomic species (ntypx) = 10
     Max number of k-points (npk) =  40000
     Max angular momentum in pseudopotentials (lmaxx) =  4
     file C.pbe-n-kjpaw_psl.1.0.0.UPF: wavefunction(s)  2S 2P renormalized


     G-vector sticks info
     --------------------
     sticks:   dense  smooth     PW     G-vecs:    dense   smooth      PW
     Sum         673     271     85                86543    21859    3993

     Using Slab Decomposition



     bravais-lattice index     =            4
     lattice parameter (alat)  =       4.6940  a.u.
     unit-cell volume          =     537.4167 (a.u.)^3
     number of atoms/cell      =            2
     number of atomic types    =            1
     number of electrons       =         8.00
     number of Kohn-Sham states=            8
     kinetic-energy cutoff     =      45.0000  Ry
     charge density cutoff     =     450.0000  Ry
     scf convergence threshold =      1.0E-08
     mixing beta               =       0.7000
     number of iterations used =            8  plain     mixing
     Exchange-correlation= SLA  PW   PBX  PBC
                           (   1   4   3   4   0   0   0)

     celldm(1)=   4.694000  celldm(2)=   0.000000  celldm(3)=   6.000000
     celldm(4)=   0.000000  celldm(5)=   0.000000  celldm(6)=   0.000000

     crystal axes: (cart. coord. in units of alat)
               a(1) = (   1.000000   0.000000   0.000000 )  
               a(2) = (  -0.500000   0.866025   0.000000 )  
               a(3) = (   0.000000   0.000000   6.000000 )  

     reciprocal axes: (cart. coord. in units 2 pi/alat)
               b(1) = (  1.000000  0.577350 -0.000000 )  
               b(2) = (  0.000000  1.154701  0.000000 )  
               b(3) = (  0.000000 -0.000000  0.166667 )  


     PseudoPot. # 1 for C  read from file:
     ../../../../../pseudos/C.pbe-n-kjpaw_psl.1.0.0.UPF
     MD5 check sum: 5d2aebdfa2cae82b50a7e79e9516da0f
     Pseudo is Projector augmented-wave + core cor, Zval =  4.0
     Generated using "atomic" code by A. Dal Corso  v.5.1
     Shape of augmentation charge: PSQ
     Using radial grid of 1073 points,  4 beta functions with: 
                l(1) =   0
                l(2) =   0
                l(3) =   1
                l(4) =   1
     Q(r) pseudized with 0 coefficients 


     atomic species   valence    mass     pseudopotential
     C                 4.00    12.01070     C ( 1.00)

     24 Sym. Ops., with inversion, found (12 have fractional translation)



   Cartesian axes

     site n.     atom                  positions (alat units)
         1        C      tau(   1) = (   0.0000000   0.0000000   0.0000000  )
         2        C      tau(   2) = (   0.0000000   0.5773503   0.0000000  )

     number of k points=    27  Gaussian smearing, width (Ry)=  0.0100
                       cart. coord. in units 2pi/alat
        k(    1) = (   0.0000000   0.0000000   0.0000000), wk =   0.0088889
        k(    2) = (   0.0000000   0.0769800   0.0000000), wk =   0.0533333
        k(    3) = (   0.0000000   0.1539601   0.0000000), wk =   0.0533333
        k(    4) = (   0.0000000   0.2309401   0.0000000), wk =   0.0533333
        k(    5) = (   0.0000000   0.3079201   0.0000000), wk =   0.0533333
        k(    6) = (   0.0000000   0.3849002   0.0000000), wk =   0.0533333
        k(    7) = (   0.0000000   0.4618802   0.0000000), wk =   0.0533333
        k(    8) = (   0.0000000   0.5388603   0.0000000), wk =   0.0533333
        k(    9) = (   0.0666667   0.1154701   0.0000000), wk =   0.0533333
        k(   10) = (   0.0666667   0.1924501   0.0000000), wk =   0.1066667
        k(   11) = (   0.0666667   0.2694301   0.0000000), wk =   0.1066667
        k(   12) = (   0.0666667   0.3464102   0.0000000), wk =   0.1066667
        k(   13) = (   0.0666667   0.4233902   0.0000000), wk =   0.1066667
        k(   14) = (   0.0666667   0.5003702   0.0000000), wk =   0.1066667
        k(   15) = (   0.0666667   0.5773503   0.0000000), wk =   0.0533333
        k(   16) = (   0.1333333   0.2309401   0.0000000), wk =   0.0533333
        k(   17) = (   0.1333333   0.3079201   0.0000000), wk =   0.1066667
        k(   18) = (   0.1333333   0.3849002   0.0000000), wk =   0.1066667
        k(   19) = (   0.1333333   0.4618802   0.0000000), wk =   0.1066667
        k(   20) = (   0.1333333   0.5388603   0.0000000), wk =   0.1066667
        k(   21) = (   0.2000000   0.3464102   0.0000000), wk =   0.0533333
        k(   22) = (   0.2000000   0.4233902   0.0000000), wk =   0.1066667
        k(   23) = (   0.2000000   0.5003702   0.0000000), wk =   0.1066667
        k(   24) = (   0.2000000   0.5773503   0.0000000), wk =   0.0533333
        k(   25) = (   0.2666667   0.4618802   0.0000000), wk =   0.0533333
        k(   26) = (   0.2666667   0.5388603   0.0000000), wk =   0.1066667
        k(   27) = (   0.3333333   0.5773503   0.0000000), wk =   0.0177778

     Dense  grid:    86543 G-vectors     FFT dimensions: (  36,  36, 192)

     Smooth grid:    21859 G-vectors     FFT dimensions: (  24,  24, 125)

     Estimated max dynamical RAM per process >     122.52 MB

     Initial potential from superposition of free atoms

     starting charge       7.9999, renormalised to       8.0000

     negative rho (up, down):  1.080E-05 0.000E+00
     Starting wfcs are    8 randomized atomic wfcs

     total cpu time spent up to now is        1.9 secs

     Self-consistent Calculation

     iteration #  1     ecut=    45.00 Ry     beta= 0.70
     Davidson diagonalization with overlap
     ethr =  1.00E-02,  avg # of iterations =  5.8

     negative rho (up, down):  2.569E-05 0.000E+00

     total cpu time spent up to now is        4.5 secs

     total energy              =     -36.85979349 Ry
     estimated scf accuracy    <       0.18412256 Ry

     iteration #  2     ecut=    45.00 Ry     beta= 0.70
     Davidson diagonalization with overlap
     ethr =  2.30E-03,  avg # of iterations =  3.0

     negative rho (up, down):  3.628E-05 0.000E+00

     total cpu time spent up to now is        6.1 secs

     total energy              =     -36.88617225 Ry
     estimated scf accuracy    <       0.00212404 Ry

     iteration #  3     ecut=    45.00 Ry     beta= 0.70
     Davidson diagonalization with overlap
     ethr =  2.66E-05,  avg # of iterations =  9.9

     negative rho (up, down):  4.349E-05 0.000E+00

     total cpu time spent up to now is        8.9 secs

     total energy              =     -36.88640154 Ry
     estimated scf accuracy    <       0.00015644 Ry

     iteration #  4     ecut=    45.00 Ry     beta= 0.70
     Davidson diagonalization with overlap
     c_bands:  1 eigenvalues not converged
     ethr =  1.96E-06,  avg # of iterations =  4.0

     negative rho (up, down):  4.438E-05 0.000E+00

     total cpu time spent up to now is       10.6 secs

     total energy              =     -36.88640980 Ry
     estimated scf accuracy    <       0.00000110 Ry

     iteration #  5     ecut=    45.00 Ry     beta= 0.70
     Davidson diagonalization with overlap
     ethr =  1.37E-08,  avg # of iterations =  3.1

     negative rho (up, down):  4.449E-05 0.000E+00

     total cpu time spent up to now is       12.3 secs

     total energy              =     -36.88641053 Ry
     estimated scf accuracy    <       0.00000002 Ry

     iteration #  6     ecut=    45.00 Ry     beta= 0.70
     Davidson diagonalization with overlap
     ethr =  2.77E-10,  avg # of iterations =  2.4

     negative rho (up, down):  4.454E-05 0.000E+00

     total cpu time spent up to now is       14.0 secs

     End of self-consistent calculation

          k = 0.0000 0.0000 0.0000 (  2641 PWs)   bands (ev):

   -21.1413  -9.2631  -4.8484  -4.8484   1.5075   2.3960   2.8079   4.7451

          k = 0.0000 0.0770 0.0000 (  2691 PWs)   bands (ev):

   -21.0377  -9.1398  -5.2696  -5.0655   1.6482   2.5378   2.9509   4.8858

          k = 0.0000 0.1540 0.0000 (  2711 PWs)   bands (ev):

   -20.7276  -8.7720  -6.3870  -5.6162   2.0706   2.9627   3.3800   5.3066

          k = 0.0000 0.2309 0.0000 (  2717 PWs)   bands (ev):

   -20.2133  -8.1666  -7.9175  -6.3059   2.7738   3.6676   4.0950   5.9940

          k = 0.0000 0.3079 0.0000 (  2727 PWs)   bands (ev):

   -19.4991  -9.6284  -7.3390  -6.9778   3.7559   4.5688   4.9565   5.0935

          k = 0.0000 0.3849 0.0000 (  2719 PWs)   bands (ev):

   -18.5929 -11.3697  -7.5373  -6.3219   3.0372   5.0057   5.7337   5.9449

          k = 0.0000 0.4619 0.0000 (  2734 PWs)   bands (ev):

   -17.5119 -13.0430  -7.9322  -5.2013   1.3312   5.5040   6.5659   7.4765

          k = 0.0000 0.5389 0.0000 (  2748 PWs)   bands (ev):

   -16.3412 -14.5195  -8.1355  -4.2668   0.0850   5.4004   8.3484   9.2593

          k = 0.0667 0.1155 0.0000 (  2719 PWs)   bands (ev):

   -20.8309  -8.8942  -5.9886  -5.5002   1.9299   2.8212   3.2371   5.1666

          k = 0.0667 0.1925 0.0000 (  2719 PWs)   bands (ev):

   -20.4186  -8.4074  -7.2252  -6.2099   2.4929   3.3866   3.8093   5.7259

          k = 0.0667 0.2694 0.0000 (  2719 PWs)   bands (ev):

   -19.8044  -8.7876  -7.6897  -6.9510   3.3362   4.2263   4.6672   5.6142

          k = 0.0667 0.3464 0.0000 (  2738 PWs)   bands (ev):

   -18.9940 -10.4830  -7.5986  -6.7630   3.8545   4.4564   5.3800   5.8052

          k = 0.0667 0.4234 0.0000 (  2740 PWs)   bands (ev):

   -17.9988 -12.1763  -8.0915  -5.6780   2.1107   5.8165   6.1115   6.7699

          k = 0.0667 0.5004 0.0000 (  2742 PWs)   bands (ev):

   -16.8516 -13.7653  -8.3975  -4.5853   0.5833   5.9030   7.5271   8.4201

          k = 0.0667 0.5774 0.0000 (  2745 PWs)   bands (ev):

   -15.9332 -14.8345  -8.5011  -4.0111  -0.1419   5.8495   9.3498   9.5049

          k = 0.1333 0.2309 0.0000 (  2721 PWs)   bands (ev):

   -19.9065  -8.3175  -7.8074  -7.1497   3.1964   4.0910   4.5249   5.9012

          k = 0.1333 0.3079 0.0000 (  2741 PWs)   bands (ev):

   -19.1959  -9.6951  -8.0384  -6.9868   4.1788   4.3830   5.0779   5.5259

          k = 0.1333 0.3849 0.0000 (  2746 PWs)   bands (ev):

   -18.2955 -11.2614  -8.7027  -5.9767   2.7539   5.4355   6.3261   6.8079

          k = 0.1333 0.4619 0.0000 (  2747 PWs)   bands (ev):

   -17.2239 -12.8464  -9.1412  -4.8559   1.1650   6.9353   7.2511   7.8209

          k = 0.1333 0.5389 0.0000 (  2745 PWs)   bands (ev):

   -16.0675 -14.2769  -9.3603  -3.8994  -0.0432   7.1050   8.7421   9.4447

          k = 0.2000 0.3464 0.0000 (  2741 PWs)   bands (ev):

   -18.3951 -10.7048  -9.1838  -6.0783   3.0163   5.2975   6.1708   6.6693

          k = 0.2000 0.4234 0.0000 (  2756 PWs)   bands (ev):

   -17.4153 -11.9687  -9.9918  -5.0069   1.5734   6.6839   7.4973   8.0936

          k = 0.2000 0.5004 0.0000 (  2765 PWs)   bands (ev):

   -16.2926 -13.3644 -10.4168  -3.8946   0.2166   8.3089   8.8672   8.8745

          k = 0.2000 0.5774 0.0000 (  2767 PWs)   bands (ev):

   -15.3977 -14.3659 -10.5493  -3.2612  -0.5028   8.7899   9.4839  10.0351

          k = 0.2667 0.4619 0.0000 (  2763 PWs)   bands (ev):

   -16.3773 -12.7527 -11.0845  -3.9062   0.3523   8.1809   8.6374   9.6528

          k = 0.2667 0.5389 0.0000 (  2773 PWs)   bands (ev):

   -15.2660 -13.7754 -11.6172  -2.8493  -0.7590   8.9840   9.8385  10.5333

          k = 0.3333 0.5774 0.0000 (  2769 PWs)   bands (ev):

   -14.3321 -14.3321 -12.1997  -1.7859  -1.7859   8.7998  10.9381  10.9382

     the Fermi energy is    -1.7859 ev

!    total energy              =     -36.88641054 Ry
     total all-electron energy =      -152.414606 Ry
     estimated scf accuracy    <          7.2E-10 Ry
     smearing contrib. (-TS)   =      -0.00010030 Ry
     internal energy E=F+TS    =     -36.88631024 Ry

     The total energy is F=E-TS. E is the sum of the following terms:
     one-electron contribution =    -153.19683266 Ry
     hartree contribution      =      78.20069476 Ry
     xc contribution           =      -9.24093913 Ry
     ewald contribution        =      59.68301699 Ry
     one-center paw contrib.   =     -12.33225020 Ry

     convergence has been achieved in   6 iterations

     Writing all to output data dir ./tmp/graphene.save/ :
     XML data file, charge density, pseudopotentials, collected wavefunctions

     init_run     :      2.15s CPU      1.80s WALL (       1 calls)
     electrons    :     20.42s CPU     12.04s WALL (       1 calls)

     Called by init_run:
     wfcinit      :      1.02s CPU      0.60s WALL (       1 calls)
     potinit      :      0.37s CPU      0.40s WALL (       1 calls)
     hinit0       :      0.66s CPU      0.67s WALL (       1 calls)

     Called by electrons:
     c_bands      :     16.25s CPU      8.86s WALL (       6 calls)
     sum_band     :      2.50s CPU      1.54s WALL (       6 calls)
     v_of_rho     :      0.79s CPU      0.74s WALL (       7 calls)
     newd         :      0.35s CPU      0.46s WALL (       7 calls)
     PAW_pot      :      0.58s CPU      0.59s WALL (       7 calls)
     mix_rho      :      0.12s CPU      0.07s WALL (       6 calls)

     Called by c_bands:
     init_us_2    :      0.36s CPU      0.21s WALL (     351 calls)
     cegterg      :     15.67s CPU      8.55s WALL (     162 calls)

     Called by *egterg:
     cdiaghg      :      0.28s CPU      0.13s WALL (     922 calls)
     h_psi        :     14.89s CPU      8.32s WALL (     949 calls)
     s_psi        :      0.14s CPU      0.07s WALL (     949 calls)
     g_psi        :      0.11s CPU      0.05s WALL (     760 calls)

     Called by h_psi:
     h_psi:calbec :      0.27s CPU      0.16s WALL (     949 calls)
     vloc_psi     :     14.18s CPU      7.84s WALL (     949 calls)
     add_vuspsi   :      0.36s CPU      0.28s WALL (     949 calls)

     General routines
     calbec       :      0.31s CPU      0.18s WALL (    1111 calls)
     fft          :      0.77s CPU      0.72s WALL (      89 calls)
     ffts         :      0.18s CPU      0.18s WALL (      13 calls)
     fftw         :     11.46s CPU      6.75s WALL (    9730 calls)
     interpolate  :      0.20s CPU      0.20s WALL (       7 calls)


     PWSCF        :     22.74s CPU     14.01s WALL


   This run was terminated on:  17: 2:49   9Sep2025            

=------------------------------------------------------------------------------=
   JOB DONE.
=------------------------------------------------------------------------------=
