
     Program PWSCF v.7.4.1 starts on  9Sep2025 at 16:49:13 

     This program is part of the open-source Quantum ESPRESSO suite
     for quantum simulation of materials; please cite
         "P. Giannozzi et al., J. Phys.:Condens. Matter 21 395502 (2009);
         "P. Giannozzi et al., J. Phys.:Condens. Matter 29 465901 (2017);
         "P. Giannozzi et al., J. Chem. Phys. 152 154105 (2020);
          URL http://www.quantum-espresso.org", 
     in publications or presentations arising from this work. More details at
     http://www.quantum-espresso.org/quote

     Serial version
     21735 MiB available memory on the printing compute node when the environment starts

     Waiting for input...
     Reading input from standard input

     Current dimensions of program PWSCF are:
     Max number of different atomic species (ntypx) = 10
     Max number of k-points (npk) =  40000
     Max angular momentum in pseudopotentials (lmaxx) =  4
     file C.pbe-n-kjpaw_psl.1.0.0.UPF: wavefunction(s)  2S 2P renormalized


     G-vector sticks info
     --------------------
     sticks:   dense  smooth     PW     G-vecs:    dense   smooth      PW
     Sum         673     265     85                84597    21311    3739

     Using Slab Decomposition



     bravais-lattice index     =            4
     lattice parameter (alat)  =       4.6540  a.u.
     unit-cell volume          =     523.7946 (a.u.)^3
     number of atoms/cell      =            2
     number of atomic types    =            1
     number of electrons       =         8.00
     number of Kohn-Sham states=            8
     kinetic-energy cutoff     =      45.0000  Ry
     charge density cutoff     =     450.0000  Ry
     scf convergence threshold =      1.0E-08
     mixing beta               =       0.7000
     number of iterations used =            8  plain     mixing
     Exchange-correlation= SLA  PW   PBX  PBC
                           (   1   4   3   4   0   0   0)

     celldm(1)=   4.654000  celldm(2)=   0.000000  celldm(3)=   6.000000
     celldm(4)=   0.000000  celldm(5)=   0.000000  celldm(6)=   0.000000

     crystal axes: (cart. coord. in units of alat)
               a(1) = (   1.000000   0.000000   0.000000 )  
               a(2) = (  -0.500000   0.866025   0.000000 )  
               a(3) = (   0.000000   0.000000   6.000000 )  

     reciprocal axes: (cart. coord. in units 2 pi/alat)
               b(1) = (  1.000000  0.577350 -0.000000 )  
               b(2) = (  0.000000  1.154701  0.000000 )  
               b(3) = (  0.000000 -0.000000  0.166667 )  


     PseudoPot. # 1 for C  read from file:
     ../../../../../pseudos/C.pbe-n-kjpaw_psl.1.0.0.UPF
     MD5 check sum: 5d2aebdfa2cae82b50a7e79e9516da0f
     Pseudo is Projector augmented-wave + core cor, Zval =  4.0
     Generated using "atomic" code by A. Dal Corso  v.5.1
     Shape of augmentation charge: PSQ
     Using radial grid of 1073 points,  4 beta functions with: 
                l(1) =   0
                l(2) =   0
                l(3) =   1
                l(4) =   1
     Q(r) pseudized with 0 coefficients 


     atomic species   valence    mass     pseudopotential
     C                 4.00    12.01070     C ( 1.00)

     24 Sym. Ops., with inversion, found (12 have fractional translation)



   Cartesian axes

     site n.     atom                  positions (alat units)
         1        C      tau(   1) = (   0.0000000   0.0000000   0.0000000  )
         2        C      tau(   2) = (   0.0000000   0.5773503   0.0000000  )

     number of k points=     4  Gaussian smearing, width (Ry)=  0.0100
                       cart. coord. in units 2pi/alat
        k(    1) = (   0.0000000   0.0000000   0.0000000), wk =   0.1250000
        k(    2) = (   0.0000000   0.2886751   0.0000000), wk =   0.7500000
        k(    3) = (   0.0000000  -0.5773503   0.0000000), wk =   0.3750000
        k(    4) = (   0.2500000   0.4330127   0.0000000), wk =   0.7500000

     Dense  grid:    84597 G-vectors     FFT dimensions: (  36,  36, 192)

     Smooth grid:    21311 G-vectors     FFT dimensions: (  24,  24, 120)

     Estimated max dynamical RAM per process >     112.63 MB

     Initial potential from superposition of free atoms

     starting charge       7.9999, renormalised to       8.0000

     negative rho (up, down):  1.033E-05 0.000E+00
     Starting wfcs are    8 randomized atomic wfcs

     total cpu time spent up to now is        1.8 secs

     Self-consistent Calculation

     iteration #  1     ecut=    45.00 Ry     beta= 0.70
     Davidson diagonalization with overlap
     ethr =  1.00E-02,  avg # of iterations =  4.8

     negative rho (up, down):  2.637E-05 0.000E+00

     total cpu time spent up to now is        2.5 secs

     total energy              =     -36.86034881 Ry
     estimated scf accuracy    <       0.19920716 Ry

     iteration #  2     ecut=    45.00 Ry     beta= 0.70
     Davidson diagonalization with overlap
     ethr =  2.49E-03,  avg # of iterations =  2.0

     negative rho (up, down):  3.720E-05 0.000E+00

     total cpu time spent up to now is        3.0 secs

     total energy              =     -36.88908445 Ry
     estimated scf accuracy    <       0.00220684 Ry

     iteration #  3     ecut=    45.00 Ry     beta= 0.70
     Davidson diagonalization with overlap
     ethr =  2.76E-05,  avg # of iterations =  8.2

     negative rho (up, down):  4.402E-05 0.000E+00

     total cpu time spent up to now is        3.7 secs

     total energy              =     -36.88934972 Ry
     estimated scf accuracy    <       0.00016199 Ry

     iteration #  4     ecut=    45.00 Ry     beta= 0.70
     Davidson diagonalization with overlap
     ethr =  2.02E-06,  avg # of iterations =  2.5

     negative rho (up, down):  4.503E-05 0.000E+00

     total cpu time spent up to now is        4.2 secs

     total energy              =     -36.88935891 Ry
     estimated scf accuracy    <       0.00000142 Ry

     iteration #  5     ecut=    45.00 Ry     beta= 0.70
     Davidson diagonalization with overlap
     ethr =  1.78E-08,  avg # of iterations =  2.5

     negative rho (up, down):  4.513E-05 0.000E+00

     total cpu time spent up to now is        4.7 secs

     total energy              =     -36.88935962 Ry
     estimated scf accuracy    <       0.00000003 Ry

     iteration #  6     ecut=    45.00 Ry     beta= 0.70
     Davidson diagonalization with overlap
     ethr =  3.81E-10,  avg # of iterations =  2.0

     negative rho (up, down):  4.519E-05 0.000E+00

     total cpu time spent up to now is        5.2 secs

     End of self-consistent calculation

          k = 0.0000 0.0000 0.0000 (  2603 PWs)   bands (ev):

   -21.2166  -9.3082  -4.7053  -4.7053   1.5492   2.4483   2.8667   4.8424

          k = 0.0000 0.2887 0.0000 (  2647 PWs)   bands (ev):

   -19.7486  -9.1035  -7.5736  -6.7254   3.5601   4.4540   4.9110   5.6270

          k = 0.0000-0.5774 0.0000 (  2688 PWs)   bands (ev):

   -15.9584 -14.9313  -8.0999  -4.0273   0.0240   5.7685   9.4400   9.5872

          k = 0.2500 0.4330 0.0000 (  2695 PWs)   bands (ev):

   -16.9246 -12.2086 -10.6452  -4.4076   1.1697   7.5403   8.2581   8.9941

     the Fermi energy is    -1.6241 ev

!    total energy              =     -36.88935962 Ry
     total all-electron energy =      -152.417555 Ry
     estimated scf accuracy    <          3.5E-10 Ry
     smearing contrib. (-TS)   =      -0.00000000 Ry
     internal energy E=F+TS    =     -36.88935962 Ry

     The total energy is F=E-TS. E is the sum of the following terms:
     one-electron contribution =    -154.21591738 Ry
     hartree contribution      =      78.74461186 Ry
     xc contribution           =      -9.28106983 Ry
     ewald contribution        =      60.19597803 Ry
     one-center paw contrib.   =     -12.33296230 Ry

     convergence has been achieved in   6 iterations

     Writing all to output data dir ./tmp/graphene.save/ :
     XML data file, charge density, pseudopotentials, collected wavefunctions

     init_run     :      1.68s CPU      1.69s WALL (       1 calls)
     electrons    :      4.55s CPU      3.38s WALL (       1 calls)

     Called by init_run:
     wfcinit      :      0.37s CPU      0.32s WALL (       1 calls)
     potinit      :      0.61s CPU      0.63s WALL (       1 calls)
     hinit0       :      0.62s CPU      0.63s WALL (       1 calls)

     Called by electrons:
     c_bands      :      1.85s CPU      1.08s WALL (       6 calls)
     sum_band     :      1.20s CPU      0.81s WALL (       6 calls)
     v_of_rho     :      0.71s CPU      0.67s WALL (       7 calls)
     newd         :      0.33s CPU      0.43s WALL (       7 calls)
     PAW_pot      :      0.53s CPU      0.53s WALL (       7 calls)
     mix_rho      :      0.10s CPU      0.06s WALL (       6 calls)

     Called by c_bands:
     init_us_2    :      0.04s CPU      0.03s WALL (      52 calls)
     cegterg      :      1.79s CPU      1.04s WALL (      24 calls)

     Called by *egterg:
     cdiaghg      :      0.04s CPU      0.02s WALL (     112 calls)
     h_psi        :      1.89s CPU      1.21s WALL (     116 calls)
     s_psi        :      0.04s CPU      0.02s WALL (     116 calls)
     g_psi        :      0.01s CPU      0.01s WALL (      88 calls)

     Called by h_psi:
     h_psi:calbec :      0.04s CPU      0.02s WALL (     116 calls)
     vloc_psi     :      1.79s CPU      1.14s WALL (     116 calls)
     add_vuspsi   :      0.06s CPU      0.05s WALL (     116 calls)

     General routines
     calbec       :      0.04s CPU      0.02s WALL (     140 calls)
     fft          :      0.80s CPU      0.73s WALL (      89 calls)
     ffts         :      0.42s CPU      0.42s WALL (      13 calls)
     fftw         :      1.48s CPU      0.99s WALL (    1378 calls)
     interpolate  :      0.44s CPU      0.44s WALL (       7 calls)


     PWSCF        :      6.41s CPU      5.21s WALL


   This run was terminated on:  16:49:19   9Sep2025            

=------------------------------------------------------------------------------=
   JOB DONE.
=------------------------------------------------------------------------------=
