
     Program PWSCF v.7.4.1 starts on  9Sep2025 at  8:42:36 

     This program is part of the open-source Quantum ESPRESSO suite
     for quantum simulation of materials; please cite
         "P. Giannozzi et al., J. Phys.:Condens. Matter 21 395502 (2009);
         "P. Giannozzi et al., J. Phys.:Condens. Matter 29 465901 (2017);
         "P. Giannozzi et al., J. Chem. Phys. 152 154105 (2020);
          URL http://www.quantum-espresso.org", 
     in publications or presentations arising from this work. More details at
     http://www.quantum-espresso.org/quote

     Serial version
     7348 MiB available memory on the printing compute node when the environment starts

     Waiting for input...
     Reading input from standard input

     Current dimensions of program PWSCF are:
     Max number of different atomic species (ntypx) = 10
     Max number of k-points (npk) =  40000
     Max angular momentum in pseudopotentials (lmaxx) =  4
     file C.pbe-n-kjpaw_psl.1.0.0.UPF: wavefunction(s)  2S 2P renormalized


     G-vector sticks info
     --------------------
     sticks:   dense  smooth     PW     G-vecs:    dense   smooth      PW
     Sum        1159     475    151               194931    49255    8289

     Using Slab Decomposition



     bravais-lattice index     =            4
     lattice parameter (alat)  =       4.6140  a.u.
     unit-cell volume          =     510.4047 (a.u.)^3
     number of atoms/cell      =            2
     number of atomic types    =            1
     number of electrons       =         8.00
     number of Kohn-Sham states=            8
     kinetic-energy cutoff     =      80.0000  Ry
     charge density cutoff     =     800.0000  Ry
     scf convergence threshold =      1.0E-08
     mixing beta               =       0.7000
     number of iterations used =            8  plain     mixing
     Exchange-correlation= SLA  PW   PBX  PBC
                           (   1   4   3   4   0   0   0)

     celldm(1)=   4.614000  celldm(2)=   0.000000  celldm(3)=   6.000000
     celldm(4)=   0.000000  celldm(5)=   0.000000  celldm(6)=   0.000000

     crystal axes: (cart. coord. in units of alat)
               a(1) = (   1.000000   0.000000   0.000000 )  
               a(2) = (  -0.500000   0.866025   0.000000 )  
               a(3) = (   0.000000   0.000000   6.000000 )  

     reciprocal axes: (cart. coord. in units 2 pi/alat)
               b(1) = (  1.000000  0.577350 -0.000000 )  
               b(2) = (  0.000000  1.154701  0.000000 )  
               b(3) = (  0.000000 -0.000000  0.166667 )  


     PseudoPot. # 1 for C  read from file:
     ../../../../../pseudos/C.pbe-n-kjpaw_psl.1.0.0.UPF
     MD5 check sum: 5d2aebdfa2cae82b50a7e79e9516da0f
     Pseudo is Projector augmented-wave + core cor, Zval =  4.0
     Generated using "atomic" code by A. Dal Corso  v.5.1
     Shape of augmentation charge: PSQ
     Using radial grid of 1073 points,  4 beta functions with: 
                l(1) =   0
                l(2) =   0
                l(3) =   1
                l(4) =   1
     Q(r) pseudized with 0 coefficients 


     atomic species   valence    mass     pseudopotential
     C                 4.00    12.01070     C ( 1.00)

     24 Sym. Ops., with inversion, found (12 have fractional translation)



   Cartesian axes

     site n.     atom                  positions (alat units)
         1        C      tau(   1) = (   0.0000000   0.0000000   0.0000000  )
         2        C      tau(   2) = (   0.0000000   0.5773503   0.0000000  )

     number of k points=    12  Gaussian smearing, width (Ry)=  0.0100
                       cart. coord. in units 2pi/alat
        k(    1) = (   0.0000000   0.0000000   0.0000000), wk =   0.0246914
        k(    2) = (   0.0000000   0.1283001   0.0000000), wk =   0.1481481
        k(    3) = (   0.0000000   0.2566001   0.0000000), wk =   0.1481481
        k(    4) = (   0.0000000   0.3849002   0.0000000), wk =   0.1481481
        k(    5) = (   0.0000000   0.5132002   0.0000000), wk =   0.1481481
        k(    6) = (   0.1111111   0.1924501   0.0000000), wk =   0.1481481
        k(    7) = (   0.1111111   0.3207501   0.0000000), wk =   0.2962963
        k(    8) = (   0.1111111   0.4490502   0.0000000), wk =   0.2962963
        k(    9) = (   0.1111111   0.5773503   0.0000000), wk =   0.1481481
        k(   10) = (   0.2222222   0.3849002   0.0000000), wk =   0.1481481
        k(   11) = (   0.2222222   0.5132002   0.0000000), wk =   0.2962963
        k(   12) = (   0.3333333   0.5773503   0.0000000), wk =   0.0493827

     Dense  grid:   194931 G-vectors     FFT dimensions: (  45,  45, 250)

     Smooth grid:    49255 G-vectors     FFT dimensions: (  27,  27, 160)

     Estimated max dynamical RAM per process >     260.49 MB

     Initial potential from superposition of free atoms

     starting charge       7.9999, renormalised to       8.0000

     negative rho (up, down):  6.996E-06 0.000E+00
     Starting wfcs are    8 randomized atomic wfcs

     total cpu time spent up to now is        3.6 secs

     Self-consistent Calculation

     iteration #  1     ecut=    80.00 Ry     beta= 0.70
     Davidson diagonalization with overlap
     ethr =  1.00E-02,  avg # of iterations =  6.3

     negative rho (up, down):  3.239E-06 0.000E+00

     total cpu time spent up to now is        9.7 secs

     total energy              =     -36.85652775 Ry
     estimated scf accuracy    <       0.20830247 Ry

     iteration #  2     ecut=    80.00 Ry     beta= 0.70
     Davidson diagonalization with overlap
     ethr =  2.60E-03,  avg # of iterations =  3.2

     negative rho (up, down):  5.836E-06 0.000E+00

     total cpu time spent up to now is       13.0 secs

     total energy              =     -36.88555075 Ry
     estimated scf accuracy    <       0.00201992 Ry

     iteration #  3     ecut=    80.00 Ry     beta= 0.70
     Davidson diagonalization with overlap
     ethr =  2.52E-05,  avg # of iterations = 10.4

     negative rho (up, down):  9.577E-06 0.000E+00

     total cpu time spent up to now is       19.2 secs

     total energy              =     -36.88589763 Ry
     estimated scf accuracy    <       0.00015747 Ry

     iteration #  4     ecut=    80.00 Ry     beta= 0.70
     Davidson diagonalization with overlap
     ethr =  1.97E-06,  avg # of iterations =  4.1

     negative rho (up, down):  9.830E-06 0.000E+00

     total cpu time spent up to now is       22.8 secs

     total energy              =     -36.88591131 Ry
     estimated scf accuracy    <       0.00000241 Ry

     iteration #  5     ecut=    80.00 Ry     beta= 0.70
     Davidson diagonalization with overlap
     ethr =  3.01E-08,  avg # of iterations =  3.2

     negative rho (up, down):  9.823E-06 0.000E+00

     total cpu time spent up to now is       25.9 secs

     total energy              =     -36.88591260 Ry
     estimated scf accuracy    <       0.00000008 Ry

     iteration #  6     ecut=    80.00 Ry     beta= 0.70
     Davidson diagonalization with overlap
     ethr =  1.02E-09,  avg # of iterations =  2.2

     negative rho (up, down):  9.821E-06 0.000E+00

     total cpu time spent up to now is       28.9 secs

     End of self-consistent calculation

          k = 0.0000 0.0000 0.0000 (  6259 PWs)   bands (ev):

   -21.3083  -9.3652  -4.5804  -4.5804   1.5807   2.4806   2.8730   4.9016

          k = 0.0000 0.1283 0.0000 (  6235 PWs)   bands (ev):

   -21.0120  -9.0088  -5.7092  -5.1705   1.9854   2.8886   3.2837   5.3059

          k = 0.0000 0.2566 0.0000 (  6197 PWs)   bands (ev):

   -20.1288  -8.2951  -7.9577  -6.3582   3.1987   4.1052   4.5158   6.4487

          k = 0.0000 0.3849 0.0000 (  6164 PWs)   bands (ev):

   -18.6791 -11.2729  -7.4052  -6.2926   3.4910   5.2077   6.1641   6.4237

          k = 0.0000 0.5132 0.0000 (  6136 PWs)   bands (ev):

   -16.7328 -14.0719  -7.9831  -4.3986   0.7120   6.1773   8.0255   8.9619

          k = 0.1111 0.1925 0.0000 (  6179 PWs)   bands (ev):

   -20.4223  -8.3043  -7.2818  -6.3483   2.7953   3.7025   4.1057   6.1108

          k = 0.1111 0.3208 0.0000 (  6169 PWs)   bands (ev):

   -19.2558  -9.7689  -7.7638  -6.9364   4.4108   4.7824   5.3459   5.7488

          k = 0.1111 0.4491 0.0000 (  6156 PWs)   bands (ev):

   -17.5489 -12.5789  -8.6614  -5.0621   1.8588   6.8058   7.5526   7.7272

          k = 0.1111 0.5774 0.0000 (  6166 PWs)   bands (ev):

   -15.7427 -14.7929  -8.9671  -3.6867   0.0806   7.3944   9.8834  10.0438

          k = 0.2222 0.3849 0.0000 (  6165 PWs)   bands (ev):

   -17.8302 -11.2901  -9.8323  -5.3151   2.5149   6.4181   7.2766   7.8012

          k = 0.2222 0.5132 0.0000 (  6160 PWs)   bands (ev):

   -15.9403 -13.4536 -10.8426  -3.3886   0.2132   9.1582   9.3995  10.2891

          k = 0.3333 0.5774 0.0000 (  6144 PWs)   bands (ev):

   -14.2374 -14.2374 -12.3328  -1.5380  -1.5380   9.1213  11.5377  11.5377

     the Fermi energy is    -1.5380 ev

!    total energy              =     -36.88591263 Ry
     total all-electron energy =      -152.414108 Ry
     estimated scf accuracy    <          7.0E-10 Ry
     smearing contrib. (-TS)   =      -0.00027861 Ry
     internal energy E=F+TS    =     -36.88563402 Ry

     The total energy is F=E-TS. E is the sum of the following terms:
     one-electron contribution =    -155.23482565 Ry
     hartree contribution      =      79.28657514 Ry
     xc contribution           =      -9.31916093 Ry
     ewald contribution        =      60.71783306 Ry
     one-center paw contrib.   =     -12.33605563 Ry

     convergence has been achieved in   6 iterations

     Writing all to output data dir ./tmp/graphene.save/ :
     XML data file, charge density, pseudopotentials, collected wavefunctions

     init_run     :      3.28s CPU      3.51s WALL (       1 calls)
     electrons    :     24.42s CPU     25.31s WALL (       1 calls)

     Called by init_run:
     wfcinit      :      0.98s CPU      0.98s WALL (       1 calls)
     potinit      :      1.01s CPU      1.08s WALL (       1 calls)
     hinit0       :      0.98s CPU      1.02s WALL (       1 calls)

     Called by electrons:
     c_bands      :     17.30s CPU     17.73s WALL (       6 calls)
     sum_band     :      3.30s CPU      3.02s WALL (       6 calls)
     v_of_rho     :      2.14s CPU      2.41s WALL (       7 calls)
     newd         :      1.09s CPU      1.66s WALL (       7 calls)
     PAW_pot      :      0.84s CPU      0.85s WALL (       7 calls)
     mix_rho      :      0.22s CPU      0.23s WALL (       6 calls)

     Called by c_bands:
     init_us_2    :      0.34s CPU      0.28s WALL (     156 calls)
     cegterg      :     16.82s CPU     17.34s WALL (      72 calls)

     Called by *egterg:
     cdiaghg      :      0.11s CPU      0.11s WALL (     424 calls)
     h_psi        :     15.93s CPU     16.33s WALL (     436 calls)
     s_psi        :      0.32s CPU      0.53s WALL (     436 calls)
     g_psi        :      0.07s CPU      0.05s WALL (     352 calls)

     Called by h_psi:
     h_psi:calbec :      0.32s CPU      0.67s WALL (     436 calls)
     vloc_psi     :     14.83s CPU     13.78s WALL (     436 calls)
     add_vuspsi   :      0.71s CPU      1.83s WALL (     436 calls)

     General routines
     calbec       :      0.36s CPU      0.70s WALL (     508 calls)
     fft          :      1.77s CPU      1.82s WALL (      89 calls)
     ffts         :      0.46s CPU      0.47s WALL (      13 calls)
     fftw         :     11.09s CPU     10.47s WALL (    4460 calls)
     interpolate  :      0.57s CPU      0.58s WALL (       7 calls)


     PWSCF        :     27.83s CPU     28.97s WALL


   This run was terminated on:   8:43: 5   9Sep2025            

=------------------------------------------------------------------------------=
   JOB DONE.
=------------------------------------------------------------------------------=
