
     Program PWSCF v.7.4.1 starts on  9Sep2025 at  8:35:37 

     This program is part of the open-source Quantum ESPRESSO suite
     for quantum simulation of materials; please cite
         "P. Giannozzi et al., J. Phys.:Condens. Matter 21 395502 (2009);
         "P. Giannozzi et al., J. Phys.:Condens. Matter 29 465901 (2017);
         "P. Giannozzi et al., J. Chem. Phys. 152 154105 (2020);
          URL http://www.quantum-espresso.org", 
     in publications or presentations arising from this work. More details at
     http://www.quantum-espresso.org/quote

     Serial version
     7856 MiB available memory on the printing compute node when the environment starts

     Waiting for input...
     Reading input from standard input

     Current dimensions of program PWSCF are:
     Max number of different atomic species (ntypx) = 10
     Max number of k-points (npk) =  40000
     Max angular momentum in pseudopotentials (lmaxx) =  4
     file C.pbe-n-kjpaw_psl.1.0.0.UPF: wavefunction(s)  2S 2P renormalized


     G-vector sticks info
     --------------------
     sticks:   dense  smooth     PW     G-vecs:    dense   smooth      PW
     Sum         979     385    121               150151    37777    6585

     Using Slab Decomposition



     bravais-lattice index     =            4
     lattice parameter (alat)  =       4.6940  a.u.
     unit-cell volume          =     537.4167 (a.u.)^3
     number of atoms/cell      =            2
     number of atomic types    =            1
     number of electrons       =         8.00
     number of Kohn-Sham states=            8
     kinetic-energy cutoff     =      65.0000  Ry
     charge density cutoff     =     650.0000  Ry
     scf convergence threshold =      1.0E-08
     mixing beta               =       0.7000
     number of iterations used =            8  plain     mixing
     Exchange-correlation= SLA  PW   PBX  PBC
                           (   1   4   3   4   0   0   0)

     celldm(1)=   4.694000  celldm(2)=   0.000000  celldm(3)=   6.000000
     celldm(4)=   0.000000  celldm(5)=   0.000000  celldm(6)=   0.000000

     crystal axes: (cart. coord. in units of alat)
               a(1) = (   1.000000   0.000000   0.000000 )  
               a(2) = (  -0.500000   0.866025   0.000000 )  
               a(3) = (   0.000000   0.000000   6.000000 )  

     reciprocal axes: (cart. coord. in units 2 pi/alat)
               b(1) = (  1.000000  0.577350 -0.000000 )  
               b(2) = (  0.000000  1.154701  0.000000 )  
               b(3) = (  0.000000 -0.000000  0.166667 )  


     PseudoPot. # 1 for C  read from file:
     ../../../../../pseudos/C.pbe-n-kjpaw_psl.1.0.0.UPF
     MD5 check sum: 5d2aebdfa2cae82b50a7e79e9516da0f
     Pseudo is Projector augmented-wave + core cor, Zval =  4.0
     Generated using "atomic" code by A. Dal Corso  v.5.1
     Shape of augmentation charge: PSQ
     Using radial grid of 1073 points,  4 beta functions with: 
                l(1) =   0
                l(2) =   0
                l(3) =   1
                l(4) =   1
     Q(r) pseudized with 0 coefficients 


     atomic species   valence    mass     pseudopotential
     C                 4.00    12.01070     C ( 1.00)

     24 Sym. Ops., with inversion, found (12 have fractional translation)



   Cartesian axes

     site n.     atom                  positions (alat units)
         1        C      tau(   1) = (   0.0000000   0.0000000   0.0000000  )
         2        C      tau(   2) = (   0.0000000   0.5773503   0.0000000  )

     number of k points=    12  Gaussian smearing, width (Ry)=  0.0100
                       cart. coord. in units 2pi/alat
        k(    1) = (   0.0000000   0.0000000   0.0000000), wk =   0.0246914
        k(    2) = (   0.0000000   0.1283001   0.0000000), wk =   0.1481481
        k(    3) = (   0.0000000   0.2566001   0.0000000), wk =   0.1481481
        k(    4) = (   0.0000000   0.3849002   0.0000000), wk =   0.1481481
        k(    5) = (   0.0000000   0.5132002   0.0000000), wk =   0.1481481
        k(    6) = (   0.1111111   0.1924501   0.0000000), wk =   0.1481481
        k(    7) = (   0.1111111   0.3207501   0.0000000), wk =   0.2962963
        k(    8) = (   0.1111111   0.4490502   0.0000000), wk =   0.2962963
        k(    9) = (   0.1111111   0.5773503   0.0000000), wk =   0.1481481
        k(   10) = (   0.2222222   0.3849002   0.0000000), wk =   0.1481481
        k(   11) = (   0.2222222   0.5132002   0.0000000), wk =   0.2962963
        k(   12) = (   0.3333333   0.5773503   0.0000000), wk =   0.0493827

     Dense  grid:   150151 G-vectors     FFT dimensions: (  45,  45, 240)

     Smooth grid:    37777 G-vectors     FFT dimensions: (  27,  27, 150)

     Estimated max dynamical RAM per process >     207.34 MB

     Initial potential from superposition of free atoms

     starting charge       7.9999, renormalised to       8.0000

     negative rho (up, down):  2.369E-05 0.000E+00
     Starting wfcs are    8 randomized atomic wfcs

     total cpu time spent up to now is        3.0 secs

     Self-consistent Calculation

     iteration #  1     ecut=    65.00 Ry     beta= 0.70
     Davidson diagonalization with overlap
     ethr =  1.00E-02,  avg # of iterations =  5.2

     negative rho (up, down):  2.293E-05 0.000E+00

     total cpu time spent up to now is        6.6 secs

     total energy              =     -36.86191878 Ry
     estimated scf accuracy    <       0.17969870 Ry

     iteration #  2     ecut=    65.00 Ry     beta= 0.70
     Davidson diagonalization with overlap
     ethr =  2.25E-03,  avg # of iterations =  3.7

     negative rho (up, down):  2.760E-05 0.000E+00

     total cpu time spent up to now is        9.6 secs

     total energy              =     -36.88605813 Ry
     estimated scf accuracy    <       0.00194517 Ry

     iteration #  3     ecut=    65.00 Ry     beta= 0.70
     Davidson diagonalization with overlap
     c_bands:  1 eigenvalues not converged
     ethr =  2.43E-05,  avg # of iterations = 10.8

     negative rho (up, down):  3.237E-05 0.000E+00

     total cpu time spent up to now is       14.5 secs

     total energy              =     -36.88633099 Ry
     estimated scf accuracy    <       0.00014782 Ry

     iteration #  4     ecut=    65.00 Ry     beta= 0.70
     Davidson diagonalization with overlap
     ethr =  1.85E-06,  avg # of iterations =  4.2

     negative rho (up, down):  3.278E-05 0.000E+00

     total cpu time spent up to now is       18.7 secs

     total energy              =     -36.88634230 Ry
     estimated scf accuracy    <       0.00000165 Ry

     iteration #  5     ecut=    65.00 Ry     beta= 0.70
     Davidson diagonalization with overlap
     ethr =  2.06E-08,  avg # of iterations =  2.8

     negative rho (up, down):  3.279E-05 0.000E+00

     total cpu time spent up to now is       21.4 secs

     total energy              =     -36.88634316 Ry
     estimated scf accuracy    <       0.00000005 Ry

     iteration #  6     ecut=    65.00 Ry     beta= 0.70
     Davidson diagonalization with overlap
     ethr =  6.37E-10,  avg # of iterations =  2.8

     negative rho (up, down):  3.278E-05 0.000E+00

     total cpu time spent up to now is       25.4 secs

     End of self-consistent calculation

          k = 0.0000 0.0000 0.0000 (  4729 PWs)   bands (ev):

   -21.1415  -9.2639  -4.8484  -4.8484   1.5076   2.3964   2.8116   4.7471

          k = 0.0000 0.1283 0.0000 (  4711 PWs)   bands (ev):

   -20.8541  -8.9222  -5.9546  -5.4075   1.8987   2.7901   3.2090   5.1374

          k = 0.0000 0.2566 0.0000 (  4742 PWs)   bands (ev):

   -19.9976  -8.4768  -7.9150  -6.5376   3.0705   3.9628   4.4004   6.0059

          k = 0.0000 0.3849 0.0000 (  4750 PWs)   bands (ev):

   -18.5935 -11.3702  -7.5374  -6.3225   3.0371   5.0057   5.7329   5.9452

          k = 0.0000 0.5132 0.0000 (  4732 PWs)   bands (ev):

   -16.7242 -14.0693  -8.0900  -4.5200   0.4079   5.4237   7.7261   8.6407

          k = 0.1111 0.1925 0.0000 (  4718 PWs)   bands (ev):

   -20.2821  -8.2470  -7.4997  -6.5265   2.6808   3.5752   4.0039   5.9146

          k = 0.1111 0.3208 0.0000 (  4751 PWs)   bands (ev):

   -19.1515  -9.9211  -7.8852  -6.9375   4.2407   4.2535   5.1494   5.5924

          k = 0.1111 0.4491 0.0000 (  4773 PWs)   bands (ev):

   -17.5017 -12.6405  -8.7524  -5.1481   1.4800   6.5281   6.8043   7.4511

          k = 0.1111 0.5774 0.0000 (  4770 PWs)   bands (ev):

   -15.8144 -14.7232  -9.0477  -3.8441  -0.1991   6.6087   9.5089   9.6762

          k = 0.2222 0.3849 0.0000 (  4778 PWs)   bands (ev):

   -17.7719 -11.4347  -9.8539  -5.3879   2.0836   6.1776   7.0169   7.5764

          k = 0.2222 0.5132 0.0000 (  4795 PWs)   bands (ev):

   -15.9564 -13.5080 -10.8436  -3.5527  -0.1041   8.8093   9.0408   9.4592

          k = 0.3333 0.5774 0.0000 (  4806 PWs)   bands (ev):

   -14.3326 -14.3326 -12.2005  -1.7861  -1.7861   8.7986  10.9379  10.9380

     the Fermi energy is    -1.7861 ev

!    total energy              =     -36.88634318 Ry
     total all-electron energy =      -152.414539 Ry
     estimated scf accuracy    <          2.6E-10 Ry
     smearing contrib. (-TS)   =      -0.00027861 Ry
     internal energy E=F+TS    =     -36.88606457 Ry

     The total energy is F=E-TS. E is the sum of the following terms:
     one-electron contribution =    -153.19579324 Ry
     hartree contribution      =      78.20099243 Ry
     xc contribution           =      -9.24168408 Ry
     ewald contribution        =      59.68301699 Ry
     one-center paw contrib.   =     -12.33259667 Ry

     convergence has been achieved in   6 iterations

     Writing all to output data dir ./tmp/graphene.save/ :
     XML data file, charge density, pseudopotentials, collected wavefunctions

     init_run     :      2.91s CPU      2.83s WALL (       1 calls)
     electrons    :     22.41s CPU     22.37s WALL (       1 calls)

     Called by init_run:
     wfcinit      :      0.96s CPU      0.67s WALL (       1 calls)
     potinit      :      0.77s CPU      0.86s WALL (       1 calls)
     hinit0       :      0.96s CPU      1.00s WALL (       1 calls)

     Called by electrons:
     c_bands      :     16.55s CPU     15.52s WALL (       6 calls)
     sum_band     :      2.62s CPU      2.36s WALL (       6 calls)
     v_of_rho     :      1.83s CPU      2.32s WALL (       7 calls)
     newd         :      0.82s CPU      1.41s WALL (       7 calls)
     PAW_pot      :      0.83s CPU      1.06s WALL (       7 calls)
     mix_rho      :      0.13s CPU      0.13s WALL (       6 calls)

     Called by c_bands:
     init_us_2    :      0.25s CPU      0.22s WALL (     156 calls)
     cegterg      :     16.18s CPU     15.22s WALL (      72 calls)

     Called by *egterg:
     cdiaghg      :      0.12s CPU      0.07s WALL (     424 calls)
     h_psi        :     15.56s CPU     14.50s WALL (     436 calls)
     s_psi        :      0.25s CPU      0.29s WALL (     436 calls)
     g_psi        :      0.06s CPU      0.03s WALL (     352 calls)

     Called by h_psi:
     h_psi:calbec :      0.33s CPU      0.47s WALL (     436 calls)
     vloc_psi     :     13.71s CPU     11.28s WALL (     436 calls)
     add_vuspsi   :      1.47s CPU      2.71s WALL (     436 calls)

     General routines
     calbec       :      0.35s CPU      0.49s WALL (     508 calls)
     fft          :      1.59s CPU      1.70s WALL (      89 calls)
     ffts         :      0.30s CPU      0.31s WALL (      13 calls)
     fftw         :     10.45s CPU      8.74s WALL (    4416 calls)
     interpolate  :      0.40s CPU      0.42s WALL (       7 calls)


     PWSCF        :     25.50s CPU     25.46s WALL


   This run was terminated on:   8:36: 3   9Sep2025            

=------------------------------------------------------------------------------=
   JOB DONE.
=------------------------------------------------------------------------------=
