
     Program PWSCF v.7.4.1 starts on  9Sep2025 at 17:12:48 

     This program is part of the open-source Quantum ESPRESSO suite
     for quantum simulation of materials; please cite
         "P. Giannozzi et al., J. Phys.:Condens. Matter 21 395502 (2009);
         "P. Giannozzi et al., J. Phys.:Condens. Matter 29 465901 (2017);
         "P. Giannozzi et al., J. Chem. Phys. 152 154105 (2020);
          URL http://www.quantum-espresso.org", 
     in publications or presentations arising from this work. More details at
     http://www.quantum-espresso.org/quote

     Serial version
     21845 MiB available memory on the printing compute node when the environment starts

     Waiting for input...
     Reading input from standard input

     Current dimensions of program PWSCF are:
     Max number of different atomic species (ntypx) = 10
     Max number of k-points (npk) =  40000
     Max angular momentum in pseudopotentials (lmaxx) =  4
     file C.pbe-n-kjpaw_psl.1.0.0.UPF: wavefunction(s)  2S 2P renormalized


     G-vector sticks info
     --------------------
     sticks:   dense  smooth     PW     G-vecs:    dense   smooth      PW
     Sum         661     253     85                82267    20639    3847

     Using Slab Decomposition



     bravais-lattice index     =            4
     lattice parameter (alat)  =       4.6140  a.u.
     unit-cell volume          =     510.4047 (a.u.)^3
     number of atoms/cell      =            2
     number of atomic types    =            1
     number of electrons       =         8.00
     number of Kohn-Sham states=            8
     kinetic-energy cutoff     =      45.0000  Ry
     charge density cutoff     =     450.0000  Ry
     scf convergence threshold =      1.0E-08
     mixing beta               =       0.7000
     number of iterations used =            8  plain     mixing
     Exchange-correlation= SLA  PW   PBX  PBC
                           (   1   4   3   4   0   0   0)

     celldm(1)=   4.614000  celldm(2)=   0.000000  celldm(3)=   6.000000
     celldm(4)=   0.000000  celldm(5)=   0.000000  celldm(6)=   0.000000

     crystal axes: (cart. coord. in units of alat)
               a(1) = (   1.000000   0.000000   0.000000 )  
               a(2) = (  -0.500000   0.866025   0.000000 )  
               a(3) = (   0.000000   0.000000   6.000000 )  

     reciprocal axes: (cart. coord. in units 2 pi/alat)
               b(1) = (  1.000000  0.577350 -0.000000 )  
               b(2) = (  0.000000  1.154701  0.000000 )  
               b(3) = (  0.000000 -0.000000  0.166667 )  


     PseudoPot. # 1 for C  read from file:
     ../../../../../pseudos/C.pbe-n-kjpaw_psl.1.0.0.UPF
     MD5 check sum: 5d2aebdfa2cae82b50a7e79e9516da0f
     Pseudo is Projector augmented-wave + core cor, Zval =  4.0
     Generated using "atomic" code by A. Dal Corso  v.5.1
     Shape of augmentation charge: PSQ
     Using radial grid of 1073 points,  4 beta functions with: 
                l(1) =   0
                l(2) =   0
                l(3) =   1
                l(4) =   1
     Q(r) pseudized with 0 coefficients 


     atomic species   valence    mass     pseudopotential
     C                 4.00    12.01070     C ( 1.00)

     24 Sym. Ops., with inversion, found (12 have fractional translation)



   Cartesian axes

     site n.     atom                  positions (alat units)
         1        C      tau(   1) = (   0.0000000   0.0000000   0.0000000  )
         2        C      tau(   2) = (   0.0000000   0.5773503   0.0000000  )

     number of k points=    12  Gaussian smearing, width (Ry)=  0.0100
                       cart. coord. in units 2pi/alat
        k(    1) = (   0.0000000   0.0000000   0.0000000), wk =   0.0246914
        k(    2) = (   0.0000000   0.1283001   0.0000000), wk =   0.1481481
        k(    3) = (   0.0000000   0.2566001   0.0000000), wk =   0.1481481
        k(    4) = (   0.0000000   0.3849002   0.0000000), wk =   0.1481481
        k(    5) = (   0.0000000   0.5132002   0.0000000), wk =   0.1481481
        k(    6) = (   0.1111111   0.1924501   0.0000000), wk =   0.1481481
        k(    7) = (   0.1111111   0.3207501   0.0000000), wk =   0.2962963
        k(    8) = (   0.1111111   0.4490502   0.0000000), wk =   0.2962963
        k(    9) = (   0.1111111   0.5773503   0.0000000), wk =   0.1481481
        k(   10) = (   0.2222222   0.3849002   0.0000000), wk =   0.1481481
        k(   11) = (   0.2222222   0.5132002   0.0000000), wk =   0.2962963
        k(   12) = (   0.3333333   0.5773503   0.0000000), wk =   0.0493827

     Dense  grid:    82267 G-vectors     FFT dimensions: (  36,  36, 192)

     Smooth grid:    20639 G-vectors     FFT dimensions: (  24,  24, 120)

     Estimated max dynamical RAM per process >     112.56 MB

     Initial potential from superposition of free atoms

     starting charge       7.9999, renormalised to       8.0000

     negative rho (up, down):  9.733E-06 0.000E+00
     Starting wfcs are    8 randomized atomic wfcs

     total cpu time spent up to now is        1.8 secs

     Self-consistent Calculation

     iteration #  1     ecut=    45.00 Ry     beta= 0.70
     Davidson diagonalization with overlap
     ethr =  1.00E-02,  avg # of iterations =  5.7

     negative rho (up, down):  2.360E-05 0.000E+00

     total cpu time spent up to now is        2.7 secs

     total energy              =     -36.85354261 Ry
     estimated scf accuracy    <       0.21228471 Ry

     iteration #  2     ecut=    45.00 Ry     beta= 0.70
     Davidson diagonalization with overlap
     ethr =  2.65E-03,  avg # of iterations =  2.8

     negative rho (up, down):  3.481E-05 0.000E+00

     total cpu time spent up to now is        3.5 secs

     total energy              =     -36.88464928 Ry
     estimated scf accuracy    <       0.00220917 Ry

     iteration #  3     ecut=    45.00 Ry     beta= 0.70
     Davidson diagonalization with overlap
     ethr =  2.76E-05,  avg # of iterations =  9.2

     negative rho (up, down):  4.273E-05 0.000E+00

     total cpu time spent up to now is        4.6 secs

     total energy              =     -36.88491324 Ry
     estimated scf accuracy    <       0.00016196 Ry

     iteration #  4     ecut=    45.00 Ry     beta= 0.70
     Davidson diagonalization with overlap
     ethr =  2.02E-06,  avg # of iterations =  3.6

     negative rho (up, down):  4.371E-05 0.000E+00

     total cpu time spent up to now is        5.4 secs

     total energy              =     -36.88492216 Ry
     estimated scf accuracy    <       0.00000125 Ry

     iteration #  5     ecut=    45.00 Ry     beta= 0.70
     Davidson diagonalization with overlap
     ethr =  1.56E-08,  avg # of iterations =  2.8

     negative rho (up, down):  4.386E-05 0.000E+00

     total cpu time spent up to now is        6.2 secs

     total energy              =     -36.88492292 Ry
     estimated scf accuracy    <       0.00000002 Ry

     iteration #  6     ecut=    45.00 Ry     beta= 0.70
     Davidson diagonalization with overlap
     ethr =  2.59E-10,  avg # of iterations =  2.6

     negative rho (up, down):  4.391E-05 0.000E+00

     total cpu time spent up to now is        7.0 secs

     End of self-consistent calculation

          k = 0.0000 0.0000 0.0000 (  2579 PWs)   bands (ev):

   -21.3080  -9.3638  -4.5797  -4.5797   1.5929   2.5022   2.9279   4.9441

          k = 0.0000 0.1283 0.0000 (  2563 PWs)   bands (ev):

   -21.0116  -9.0075  -5.7083  -5.1697   1.9974   2.9100   3.3389   5.3485

          k = 0.0000 0.2566 0.0000 (  2591 PWs)   bands (ev):

   -20.1281  -8.2942  -7.9564  -6.3573   3.2100   4.1259   4.5714   6.4819

          k = 0.0000 0.3849 0.0000 (  2604 PWs)   bands (ev):

   -18.6781 -11.2718  -7.4043  -6.2915   3.4915   5.2177   6.1837   6.4374

          k = 0.0000 0.5132 0.0000 (  2610 PWs)   bands (ev):

   -16.7319 -14.0706  -7.9821  -4.3977   0.7127   6.1785   8.0341   8.9794

          k = 0.1111 0.1925 0.0000 (  2587 PWs)   bands (ev):

   -20.4217  -8.3031  -7.2809  -6.3474   2.8068   3.7235   4.1612   6.1538

          k = 0.1111 0.3208 0.0000 (  2591 PWs)   bands (ev):

   -19.2549  -9.7679  -7.7628  -6.9352   4.4215   4.7833   5.3655   5.8048

          k = 0.1111 0.4491 0.0000 (  2603 PWs)   bands (ev):

   -17.5478 -12.5777  -8.6604  -5.0611   1.8595   6.8146   7.5550   7.7448

          k = 0.1111 0.5774 0.0000 (  2609 PWs)   bands (ev):

   -15.7420 -14.7913  -8.9660  -3.6858   0.0814   7.3954   9.8895  10.0514

          k = 0.2222 0.3849 0.0000 (  2619 PWs)   bands (ev):

   -17.8292 -11.2891  -9.8310  -5.3140   2.5154   6.4276   7.2935   7.8580

          k = 0.2222 0.5132 0.0000 (  2638 PWs)   bands (ev):

   -15.9393 -13.4525 -10.8412  -3.3878   0.2139   9.1653   9.4042  10.2917

          k = 0.3333 0.5774 0.0000 (  2631 PWs)   bands (ev):

   -14.2366 -14.2366 -12.3310  -1.5373  -1.5373   9.1229  11.5396  11.5400

     the Fermi energy is    -1.5373 ev

!    total energy              =     -36.88492292 Ry
     total all-electron energy =      -152.413119 Ry
     estimated scf accuracy    <          7.0E-10 Ry
     smearing contrib. (-TS)   =      -0.00027861 Ry
     internal energy E=F+TS    =     -36.88464431 Ry

     The total energy is F=E-TS. E is the sum of the following terms:
     one-electron contribution =    -155.23464626 Ry
     hartree contribution      =      79.28632648 Ry
     xc contribution           =      -9.31850053 Ry
     ewald contribution        =      60.71783306 Ry
     one-center paw contrib.   =     -12.33565707 Ry

     convergence has been achieved in   6 iterations

     Writing all to output data dir ./tmp/graphene.save/ :
     XML data file, charge density, pseudopotentials, collected wavefunctions

     init_run     :      1.73s CPU      1.63s WALL (       1 calls)
     electrons    :      8.66s CPU      5.21s WALL (       1 calls)

     Called by init_run:
     wfcinit      :      0.53s CPU      0.39s WALL (       1 calls)
     potinit      :      0.54s CPU      0.57s WALL (       1 calls)
     hinit0       :      0.58s CPU      0.58s WALL (       1 calls)

     Called by electrons:
     c_bands      :      5.62s CPU      2.97s WALL (       6 calls)
     sum_band     :      1.57s CPU      0.86s WALL (       6 calls)
     v_of_rho     :      0.76s CPU      0.64s WALL (       7 calls)
     newd         :      0.26s CPU      0.36s WALL (       7 calls)
     PAW_pot      :      0.47s CPU      0.47s WALL (       7 calls)
     mix_rho      :      0.11s CPU      0.07s WALL (       6 calls)

     Called by c_bands:
     init_us_2    :      0.15s CPU      0.09s WALL (     156 calls)
     cegterg      :      5.41s CPU      2.86s WALL (      72 calls)

     Called by *egterg:
     cdiaghg      :      0.12s CPU      0.05s WALL (     392 calls)
     h_psi        :      5.22s CPU      2.95s WALL (     404 calls)
     s_psi        :      0.06s CPU      0.02s WALL (     404 calls)
     g_psi        :      0.05s CPU      0.02s WALL (     320 calls)

     Called by h_psi:
     h_psi:calbec :      0.12s CPU      0.05s WALL (     404 calls)
     vloc_psi     :      4.98s CPU      2.84s WALL (     404 calls)
     add_vuspsi   :      0.09s CPU      0.04s WALL (     404 calls)

     General routines
     calbec       :      0.14s CPU      0.06s WALL (     476 calls)
     fft          :      0.74s CPU      0.67s WALL (      89 calls)
     ffts         :      0.41s CPU      0.40s WALL (      13 calls)
     fftw         :      4.12s CPU      2.47s WALL (    4298 calls)
     interpolate  :      0.41s CPU      0.42s WALL (       7 calls)


     PWSCF        :     10.58s CPU      6.98s WALL


   This run was terminated on:  17:12:55   9Sep2025            

=------------------------------------------------------------------------------=
   JOB DONE.
=------------------------------------------------------------------------------=
