
     Program PWSCF v.7.4.1 starts on  9Sep2025 at 16:50: 4 

     This program is part of the open-source Quantum ESPRESSO suite
     for quantum simulation of materials; please cite
         "P. Giannozzi et al., J. Phys.:Condens. Matter 21 395502 (2009);
         "P. Giannozzi et al., J. Phys.:Condens. Matter 29 465901 (2017);
         "P. Giannozzi et al., J. Chem. Phys. 152 154105 (2020);
          URL http://www.quantum-espresso.org", 
     in publications or presentations arising from this work. More details at
     http://www.quantum-espresso.org/quote

     Serial version
     21787 MiB available memory on the printing compute node when the environment starts

     Waiting for input...
     Reading input from standard input

     Current dimensions of program PWSCF are:
     Max number of different atomic species (ntypx) = 10
     Max number of k-points (npk) =  40000
     Max angular momentum in pseudopotentials (lmaxx) =  4
     file C.pbe-n-kjpaw_psl.1.0.0.UPF: wavefunction(s)  2S 2P renormalized


     G-vector sticks info
     --------------------
     sticks:   dense  smooth     PW     G-vecs:    dense   smooth      PW
     Sum         673     265     85                84597    21311    3847

     Using Slab Decomposition



     bravais-lattice index     =            4
     lattice parameter (alat)  =       4.6540  a.u.
     unit-cell volume          =     523.7946 (a.u.)^3
     number of atoms/cell      =            2
     number of atomic types    =            1
     number of electrons       =         8.00
     number of Kohn-Sham states=            8
     kinetic-energy cutoff     =      45.0000  Ry
     charge density cutoff     =     450.0000  Ry
     scf convergence threshold =      1.0E-08
     mixing beta               =       0.7000
     number of iterations used =            8  plain     mixing
     Exchange-correlation= SLA  PW   PBX  PBC
                           (   1   4   3   4   0   0   0)

     celldm(1)=   4.654000  celldm(2)=   0.000000  celldm(3)=   6.000000
     celldm(4)=   0.000000  celldm(5)=   0.000000  celldm(6)=   0.000000

     crystal axes: (cart. coord. in units of alat)
               a(1) = (   1.000000   0.000000   0.000000 )  
               a(2) = (  -0.500000   0.866025   0.000000 )  
               a(3) = (   0.000000   0.000000   6.000000 )  

     reciprocal axes: (cart. coord. in units 2 pi/alat)
               b(1) = (  1.000000  0.577350 -0.000000 )  
               b(2) = (  0.000000  1.154701  0.000000 )  
               b(3) = (  0.000000 -0.000000  0.166667 )  


     PseudoPot. # 1 for C  read from file:
     ../../../../../pseudos/C.pbe-n-kjpaw_psl.1.0.0.UPF
     MD5 check sum: 5d2aebdfa2cae82b50a7e79e9516da0f
     Pseudo is Projector augmented-wave + core cor, Zval =  4.0
     Generated using "atomic" code by A. Dal Corso  v.5.1
     Shape of augmentation charge: PSQ
     Using radial grid of 1073 points,  4 beta functions with: 
                l(1) =   0
                l(2) =   0
                l(3) =   1
                l(4) =   1
     Q(r) pseudized with 0 coefficients 


     atomic species   valence    mass     pseudopotential
     C                 4.00    12.01070     C ( 1.00)

     24 Sym. Ops., with inversion, found (12 have fractional translation)



   Cartesian axes

     site n.     atom                  positions (alat units)
         1        C      tau(   1) = (   0.0000000   0.0000000   0.0000000  )
         2        C      tau(   2) = (   0.0000000   0.5773503   0.0000000  )

     number of k points=    10  Gaussian smearing, width (Ry)=  0.0100
                       cart. coord. in units 2pi/alat
        k(    1) = (   0.0000000   0.0000000   0.0000000), wk =   0.0312500
        k(    2) = (   0.0000000   0.1443376   0.0000000), wk =   0.1875000
        k(    3) = (   0.0000000   0.2886751   0.0000000), wk =   0.1875000
        k(    4) = (   0.0000000   0.4330127   0.0000000), wk =   0.1875000
        k(    5) = (   0.0000000  -0.5773503   0.0000000), wk =   0.0937500
        k(    6) = (   0.1250000   0.2165064   0.0000000), wk =   0.1875000
        k(    7) = (   0.1250000   0.3608439   0.0000000), wk =   0.3750000
        k(    8) = (   0.1250000   0.5051815   0.0000000), wk =   0.3750000
        k(    9) = (   0.2500000   0.4330127   0.0000000), wk =   0.1875000
        k(   10) = (   0.2500000   0.5773503   0.0000000), wk =   0.1875000

     Dense  grid:    84597 G-vectors     FFT dimensions: (  36,  36, 192)

     Smooth grid:    21311 G-vectors     FFT dimensions: (  24,  24, 120)

     Estimated max dynamical RAM per process >     114.59 MB

     Initial potential from superposition of free atoms

     starting charge       7.9999, renormalised to       8.0000

     negative rho (up, down):  1.033E-05 0.000E+00
     Starting wfcs are    8 randomized atomic wfcs

     total cpu time spent up to now is        1.8 secs

     Self-consistent Calculation

     iteration #  1     ecut=    45.00 Ry     beta= 0.70
     Davidson diagonalization with overlap
     ethr =  1.00E-02,  avg # of iterations =  5.3

     negative rho (up, down):  2.601E-05 0.000E+00

     total cpu time spent up to now is        2.6 secs

     total energy              =     -36.85828532 Ry
     estimated scf accuracy    <       0.19748267 Ry

     iteration #  2     ecut=    45.00 Ry     beta= 0.70
     Davidson diagonalization with overlap
     ethr =  2.47E-03,  avg # of iterations =  3.8

     negative rho (up, down):  3.656E-05 0.000E+00

     total cpu time spent up to now is        3.4 secs

     total energy              =     -36.88671832 Ry
     estimated scf accuracy    <       0.00213659 Ry

     iteration #  3     ecut=    45.00 Ry     beta= 0.70
     Davidson diagonalization with overlap
     ethr =  2.67E-05,  avg # of iterations =  8.3

     negative rho (up, down):  4.389E-05 0.000E+00

     total cpu time spent up to now is        4.3 secs

     total energy              =     -36.88695532 Ry
     estimated scf accuracy    <       0.00015858 Ry

     iteration #  4     ecut=    45.00 Ry     beta= 0.70
     Davidson diagonalization with overlap
     ethr =  1.98E-06,  avg # of iterations =  2.9

     negative rho (up, down):  4.485E-05 0.000E+00

     total cpu time spent up to now is        5.1 secs

     total energy              =     -36.88696514 Ry
     estimated scf accuracy    <       0.00000112 Ry

     iteration #  5     ecut=    45.00 Ry     beta= 0.70
     Davidson diagonalization with overlap
     ethr =  1.40E-08,  avg # of iterations =  3.1

     negative rho (up, down):  4.500E-05 0.000E+00

     total cpu time spent up to now is        5.8 secs

     total energy              =     -36.88696592 Ry
     estimated scf accuracy    <       0.00000002 Ry

     iteration #  6     ecut=    45.00 Ry     beta= 0.70
     Davidson diagonalization with overlap
     ethr =  2.99E-10,  avg # of iterations =  2.3

     negative rho (up, down):  4.506E-05 0.000E+00

     total cpu time spent up to now is        6.5 secs

     End of self-consistent calculation

          k = 0.0000 0.0000 0.0000 (  2603 PWs)   bands (ev):

   -21.2235  -9.3119  -4.7156  -4.7156   1.5500   2.4487   2.8671   4.8426

          k = 0.0000 0.1443 0.0000 (  2631 PWs)   bands (ev):

   -20.8542  -8.8707  -6.1000  -5.4216   2.0533   2.9557   3.3784   5.3452

          k = 0.0000 0.2887 0.0000 (  2647 PWs)   bands (ev):

   -19.7557  -9.1124  -7.5776  -6.7350   3.5609   4.4543   4.9113   5.6205

          k = 0.0000 0.4330 0.0000 (  2662 PWs)   bands (ev):

   -17.9659 -12.3972  -7.7456  -5.5907   2.1394   5.8788   6.1413   7.0050

          k = 0.0000-0.5774 0.0000 (  2688 PWs)   bands (ev):

   -15.9662 -14.9389  -8.1092  -4.0322   0.0195   5.7620   9.4407   9.5878

          k = 0.1250 0.2165 0.0000 (  2655 PWs)   bands (ev):

   -20.1203  -8.0020  -7.9059  -6.8306   3.0601   3.9659   4.4018   6.5775

          k = 0.1250 0.3608 0.0000 (  2673 PWs)   bands (ev):

   -18.6752 -10.7005  -8.3529  -6.3362   3.5540   5.0651   5.9759   6.4453

          k = 0.1250 0.5052 0.0000 (  2683 PWs)   bands (ev):

   -16.6038 -13.7065  -9.1222  -4.2373   0.5774   7.3364   8.0543   8.8804

          k = 0.2500 0.4330 0.0000 (  2695 PWs)   bands (ev):

   -16.9322 -12.2171 -10.6534  -4.4121   1.1641   7.5410   8.2584   8.9944

          k = 0.2500 0.5774 0.0000 (  2711 PWs)   bands (ev):

   -15.0184 -14.1461 -11.4380  -2.6892  -0.7109   9.2617  10.4842  10.6368

     the Fermi energy is    -2.0513 ev

!    total energy              =     -36.88696592 Ry
     total all-electron energy =      -152.415162 Ry
     estimated scf accuracy    <          5.9E-10 Ry
     smearing contrib. (-TS)   =      -0.00000000 Ry
     internal energy E=F+TS    =     -36.88696592 Ry

     The total energy is F=E-TS. E is the sum of the following terms:
     one-electron contribution =    -154.20952408 Ry
     hartree contribution      =      78.73989220 Ry
     xc contribution           =      -9.27942019 Ry
     ewald contribution        =      60.19597803 Ry
     one-center paw contrib.   =     -12.33389188 Ry

     convergence has been achieved in   6 iterations

     Writing all to output data dir ./tmp/graphene.save/ :
     XML data file, charge density, pseudopotentials, collected wavefunctions

     init_run     :      1.69s CPU      1.61s WALL (       1 calls)
     electrons    :      7.63s CPU      4.73s WALL (       1 calls)

     Called by init_run:
     wfcinit      :      0.49s CPU      0.37s WALL (       1 calls)
     potinit      :      0.55s CPU      0.57s WALL (       1 calls)
     hinit0       :      0.57s CPU      0.58s WALL (       1 calls)

     Called by electrons:
     c_bands      :      4.63s CPU      2.49s WALL (       6 calls)
     sum_band     :      1.51s CPU      0.84s WALL (       6 calls)
     v_of_rho     :      0.77s CPU      0.66s WALL (       7 calls)
     newd         :      0.28s CPU      0.37s WALL (       7 calls)
     PAW_pot      :      0.46s CPU      0.46s WALL (       7 calls)
     mix_rho      :      0.11s CPU      0.07s WALL (       6 calls)

     Called by c_bands:
     init_us_2    :      0.14s CPU      0.08s WALL (     130 calls)
     cegterg      :      4.44s CPU      2.39s WALL (      60 calls)

     Called by *egterg:
     cdiaghg      :      0.10s CPU      0.04s WALL (     317 calls)
     h_psi        :      4.30s CPU      2.49s WALL (     327 calls)
     s_psi        :      0.05s CPU      0.03s WALL (     327 calls)
     g_psi        :      0.04s CPU      0.01s WALL (     257 calls)

     Called by h_psi:
     h_psi:calbec :      0.10s CPU      0.04s WALL (     327 calls)
     vloc_psi     :      4.06s CPU      2.38s WALL (     327 calls)
     add_vuspsi   :      0.12s CPU      0.06s WALL (     327 calls)

     General routines
     calbec       :      0.11s CPU      0.05s WALL (     387 calls)
     fft          :      0.74s CPU      0.67s WALL (      89 calls)
     ffts         :      0.40s CPU      0.40s WALL (      13 calls)
     fftw         :      3.43s CPU      2.10s WALL (    3538 calls)
     interpolate  :      0.41s CPU      0.41s WALL (       7 calls)


     PWSCF        :      9.51s CPU      6.50s WALL


   This run was terminated on:  16:50:11   9Sep2025            

=------------------------------------------------------------------------------=
   JOB DONE.
=------------------------------------------------------------------------------=
