
     Program PWSCF v.7.4.1 starts on  9Sep2025 at  8: 6: 9 

     This program is part of the open-source Quantum ESPRESSO suite
     for quantum simulation of materials; please cite
         "P. Giannozzi et al., J. Phys.:Condens. Matter 21 395502 (2009);
         "P. Giannozzi et al., J. Phys.:Condens. Matter 29 465901 (2017);
         "P. Giannozzi et al., J. Chem. Phys. 152 154105 (2020);
          URL http://www.quantum-espresso.org", 
     in publications or presentations arising from this work. More details at
     http://www.quantum-espresso.org/quote

     Serial version
     8728 MiB available memory on the printing compute node when the environment starts

     Waiting for input...
     Reading input from standard input

     Current dimensions of program PWSCF are:
     Max number of different atomic species (ntypx) = 10
     Max number of k-points (npk) =  40000
     Max angular momentum in pseudopotentials (lmaxx) =  4
     file C.pbe-n-kjpaw_psl.1.0.0.UPF: wavefunction(s)  2S 2P renormalized


     G-vector sticks info
     --------------------
     sticks:   dense  smooth     PW     G-vecs:    dense   smooth      PW
     Sum         889     361    109               129613    33017    5693

     Using Slab Decomposition



     bravais-lattice index     =            4
     lattice parameter (alat)  =       4.6540  a.u.
     unit-cell volume          =     523.7946 (a.u.)^3
     number of atoms/cell      =            2
     number of atomic types    =            1
     number of electrons       =         8.00
     number of Kohn-Sham states=            8
     kinetic-energy cutoff     =      60.0000  Ry
     charge density cutoff     =     600.0000  Ry
     scf convergence threshold =      1.0E-08
     mixing beta               =       0.7000
     number of iterations used =            8  plain     mixing
     Exchange-correlation= SLA  PW   PBX  PBC
                           (   1   4   3   4   0   0   0)

     celldm(1)=   4.654000  celldm(2)=   0.000000  celldm(3)=   6.000000
     celldm(4)=   0.000000  celldm(5)=   0.000000  celldm(6)=   0.000000

     crystal axes: (cart. coord. in units of alat)
               a(1) = (   1.000000   0.000000   0.000000 )  
               a(2) = (  -0.500000   0.866025   0.000000 )  
               a(3) = (   0.000000   0.000000   6.000000 )  

     reciprocal axes: (cart. coord. in units 2 pi/alat)
               b(1) = (  1.000000  0.577350 -0.000000 )  
               b(2) = (  0.000000  1.154701  0.000000 )  
               b(3) = (  0.000000 -0.000000  0.166667 )  


     PseudoPot. # 1 for C  read from file:
     ../../../../pseudos/C.pbe-n-kjpaw_psl.1.0.0.UPF
     MD5 check sum: 5d2aebdfa2cae82b50a7e79e9516da0f
     Pseudo is Projector augmented-wave + core cor, Zval =  4.0
     Generated using "atomic" code by A. Dal Corso  v.5.1
     Shape of augmentation charge: PSQ
     Using radial grid of 1073 points,  4 beta functions with: 
                l(1) =   0
                l(2) =   0
                l(3) =   1
                l(4) =   1
     Q(r) pseudized with 0 coefficients 


     atomic species   valence    mass     pseudopotential
     C                 4.00    12.01070     C ( 1.00)

     24 Sym. Ops., with inversion, found (12 have fractional translation)



   Cartesian axes

     site n.     atom                  positions (alat units)
         1        C      tau(   1) = (   0.0000000   0.0000000   0.0000000  )
         2        C      tau(   2) = (   0.0000000   0.5773503   0.0000000  )

     number of k points=    12  Gaussian smearing, width (Ry)=  0.0100
                       cart. coord. in units 2pi/alat
        k(    1) = (   0.0000000   0.0000000   0.0000000), wk =   0.0246914
        k(    2) = (   0.0000000   0.1283001   0.0000000), wk =   0.1481481
        k(    3) = (   0.0000000   0.2566001   0.0000000), wk =   0.1481481
        k(    4) = (   0.0000000   0.3849002   0.0000000), wk =   0.1481481
        k(    5) = (   0.0000000   0.5132002   0.0000000), wk =   0.1481481
        k(    6) = (   0.1111111   0.1924501   0.0000000), wk =   0.1481481
        k(    7) = (   0.1111111   0.3207501   0.0000000), wk =   0.2962963
        k(    8) = (   0.1111111   0.4490502   0.0000000), wk =   0.2962963
        k(    9) = (   0.1111111   0.5773503   0.0000000), wk =   0.1481481
        k(   10) = (   0.2222222   0.3849002   0.0000000), wk =   0.1481481
        k(   11) = (   0.2222222   0.5132002   0.0000000), wk =   0.2962963
        k(   12) = (   0.3333333   0.5773503   0.0000000), wk =   0.0493827

     Dense  grid:   129613 G-vectors     FFT dimensions: (  45,  45, 225)

     Smooth grid:    33017 G-vectors     FFT dimensions: (  24,  24, 144)

     Estimated max dynamical RAM per process >     181.53 MB

     Initial potential from superposition of free atoms

     starting charge       7.9999, renormalised to       8.0000

     negative rho (up, down):  4.192E-06 0.000E+00
     Starting wfcs are    8 randomized atomic wfcs

     total cpu time spent up to now is        2.0 secs

     Self-consistent Calculation

     iteration #  1     ecut=    60.00 Ry     beta= 0.70
     Davidson diagonalization with overlap
     ethr =  1.00E-02,  avg # of iterations =  5.7

     negative rho (up, down):  1.692E-06 0.000E+00

     total cpu time spent up to now is        3.7 secs

     total energy              =     -36.85930388 Ry
     estimated scf accuracy    <       0.19457113 Ry

     iteration #  2     ecut=    60.00 Ry     beta= 0.70
     Davidson diagonalization with overlap
     ethr =  2.43E-03,  avg # of iterations =  3.7

     negative rho (up, down):  3.507E-06 0.000E+00

     total cpu time spent up to now is        5.0 secs

     total energy              =     -36.88625748 Ry
     estimated scf accuracy    <       0.00199160 Ry

     iteration #  3     ecut=    60.00 Ry     beta= 0.70
     Davidson diagonalization with overlap
     ethr =  2.49E-05,  avg # of iterations =  9.9

     negative rho (up, down):  6.482E-06 0.000E+00

     total cpu time spent up to now is        6.9 secs

     total energy              =     -36.88653689 Ry
     estimated scf accuracy    <       0.00015369 Ry

     iteration #  4     ecut=    60.00 Ry     beta= 0.70
     Davidson diagonalization with overlap
     ethr =  1.92E-06,  avg # of iterations =  4.1

     negative rho (up, down):  6.260E-06 0.000E+00

     total cpu time spent up to now is        8.2 secs

     total energy              =     -36.88654986 Ry
     estimated scf accuracy    <       0.00000179 Ry

     iteration #  5     ecut=    60.00 Ry     beta= 0.70
     Davidson diagonalization with overlap
     ethr =  2.24E-08,  avg # of iterations =  3.2

     negative rho (up, down):  6.240E-06 0.000E+00

     total cpu time spent up to now is        9.5 secs

     total energy              =     -36.88655091 Ry
     estimated scf accuracy    <       0.00000005 Ry

     iteration #  6     ecut=    60.00 Ry     beta= 0.70
     Davidson diagonalization with overlap
     ethr =  6.56E-10,  avg # of iterations =  2.3

     negative rho (up, down):  6.237E-06 0.000E+00

     total cpu time spent up to now is       10.9 secs

     End of self-consistent calculation

          k = 0.0000 0.0000 0.0000 (  4101 PWs)   bands (ev):

   -21.2254  -9.3138  -4.7171  -4.7171   1.5260   2.4069   2.7674   4.7649

          k = 0.0000 0.1283 0.0000 (  4116 PWs)   bands (ev):

   -20.9335  -8.9648  -5.8343  -5.2915   1.9241   2.8079   3.1712   5.1619

          k = 0.0000 0.2566 0.0000 (  4120 PWs)   bands (ev):

   -20.0637  -8.3879  -7.9360  -6.4499   3.1174   4.0035   4.3821   6.2350

          k = 0.0000 0.3849 0.0000 (  4108 PWs)   bands (ev):

   -18.6368 -11.3230  -7.4729  -6.3077   3.2613   5.0917   6.0244   6.0813

          k = 0.0000 0.5132 0.0000 (  4132 PWs)   bands (ev):

   -16.7291 -14.0717  -8.0380  -4.4602   0.5582   5.7954   7.8612   8.7743

          k = 0.1111 0.1925 0.0000 (  4081 PWs)   bands (ev):

   -20.3527  -8.2752  -7.3929  -6.4394   2.7206   3.6078   3.9791   5.9526

          k = 0.1111 0.3208 0.0000 (  4105 PWs)   bands (ev):

   -19.2042  -9.8467  -7.8262  -6.9369   4.3092   4.5153   5.2166   5.5937

          k = 0.1111 0.4491 0.0000 (  4128 PWs)   bands (ev):

   -17.5259 -12.6108  -8.7085  -5.1057   1.6670   6.6586   7.1669   7.5619

          k = 0.1111 0.5774 0.0000 (  4124 PWs)   bands (ev):

   -15.7807 -14.7575  -9.0089  -3.7666  -0.0608   6.9964   9.6851   9.8468

          k = 0.2222 0.3849 0.0000 (  4126 PWs)   bands (ev):

   -17.8017 -11.3643  -9.8440  -5.3519   2.2962   6.2826   7.1207   7.6104

          k = 0.2222 0.5132 0.0000 (  4098 PWs)   bands (ev):

   -15.9491 -13.4816 -10.8445  -3.4718   0.0524   8.9725   9.2117   9.8695

          k = 0.3333 0.5774 0.0000 (  4116 PWs)   bands (ev):

   -14.2869 -14.2869 -12.2658  -1.6639  -1.6639   8.9577  11.2381  11.2383

     the Fermi energy is    -1.6639 ev

!    total energy              =     -36.88655093 Ry
     total all-electron energy =      -152.414747 Ry
     estimated scf accuracy    <          5.6E-10 Ry
     smearing contrib. (-TS)   =      -0.00027861 Ry
     internal energy E=F+TS    =     -36.88627232 Ry

     The total energy is F=E-TS. E is the sum of the following terms:
     one-electron contribution =    -154.20739694 Ry
     hartree contribution      =      78.73925305 Ry
     xc contribution           =      -9.27993185 Ry
     ewald contribution        =      60.19597803 Ry
     one-center paw contrib.   =     -12.33417461 Ry

     convergence has been achieved in   6 iterations

     Writing all to output data dir ./tmp/graphene.save/ :
     XML data file, charge density, pseudopotentials, collected wavefunctions

     init_run     :      2.08s CPU      1.92s WALL (       1 calls)
     electrons    :     14.20s CPU      8.82s WALL (       1 calls)

     Called by init_run:
     wfcinit      :      0.82s CPU      0.58s WALL (       1 calls)
     potinit      :      0.68s CPU      0.72s WALL (       1 calls)
     hinit0       :      0.46s CPU      0.47s WALL (       1 calls)

     Called by electrons:
     c_bands      :      9.78s CPU      5.34s WALL (       6 calls)
     sum_band     :      2.39s CPU      1.29s WALL (       6 calls)
     v_of_rho     :      1.10s CPU      1.24s WALL (       7 calls)
     newd         :      0.45s CPU      0.62s WALL (       7 calls)
     PAW_pot      :      0.46s CPU      0.47s WALL (       7 calls)
     mix_rho      :      0.22s CPU      0.13s WALL (       6 calls)

     Called by c_bands:
     init_us_2    :      0.25s CPU      0.14s WALL (     156 calls)
     cegterg      :      9.43s CPU      5.15s WALL (      72 calls)

     Called by *egterg:
     cdiaghg      :      0.14s CPU      0.06s WALL (     418 calls)
     h_psi        :      9.01s CPU      5.19s WALL (     430 calls)
     s_psi        :      0.12s CPU      0.05s WALL (     430 calls)
     g_psi        :      0.08s CPU      0.03s WALL (     346 calls)

     Called by h_psi:
     h_psi:calbec :      0.17s CPU      0.08s WALL (     430 calls)
     vloc_psi     :      8.58s CPU      4.97s WALL (     430 calls)
     add_vuspsi   :      0.20s CPU      0.11s WALL (     430 calls)

     General routines
     calbec       :      0.20s CPU      0.10s WALL (     502 calls)
     fft          :      0.98s CPU      0.90s WALL (      89 calls)
     ffts         :      0.44s CPU      0.43s WALL (      13 calls)
     fftw         :      6.14s CPU      3.71s WALL (    4408 calls)
     interpolate  :      0.48s CPU      0.48s WALL (       7 calls)


     PWSCF        :     16.49s CPU     10.89s WALL


   This run was terminated on:   8: 6:20   9Sep2025            

=------------------------------------------------------------------------------=
   JOB DONE.
=------------------------------------------------------------------------------=
