
     Program PWSCF v.7.4.1 starts on  9Sep2025 at 16:59:56 

     This program is part of the open-source Quantum ESPRESSO suite
     for quantum simulation of materials; please cite
         "P. Giannozzi et al., J. Phys.:Condens. Matter 21 395502 (2009);
         "P. Giannozzi et al., J. Phys.:Condens. Matter 29 465901 (2017);
         "P. Giannozzi et al., J. Chem. Phys. 152 154105 (2020);
          URL http://www.quantum-espresso.org", 
     in publications or presentations arising from this work. More details at
     http://www.quantum-espresso.org/quote

     Serial version
     22269 MiB available memory on the printing compute node when the environment starts

     Waiting for input...
     Reading input from standard input

     Current dimensions of program PWSCF are:
     Max number of different atomic species (ntypx) = 10
     Max number of k-points (npk) =  40000
     Max angular momentum in pseudopotentials (lmaxx) =  4
     file C.pbe-n-kjpaw_psl.1.0.0.UPF: wavefunction(s)  2S 2P renormalized


     G-vector sticks info
     --------------------
     sticks:   dense  smooth     PW     G-vecs:    dense   smooth      PW
     Sum         673     271     61                86543    21859    2641

     Using Slab Decomposition



     bravais-lattice index     =            4
     lattice parameter (alat)  =       4.6940  a.u.
     unit-cell volume          =     537.4167 (a.u.)^3
     number of atoms/cell      =            2
     number of atomic types    =            1
     number of electrons       =         8.00
     number of Kohn-Sham states=            8
     kinetic-energy cutoff     =      45.0000  Ry
     charge density cutoff     =     450.0000  Ry
     scf convergence threshold =      1.0E-08
     mixing beta               =       0.7000
     number of iterations used =            8  plain     mixing
     Exchange-correlation= SLA  PW   PBX  PBC
                           (   1   4   3   4   0   0   0)

     celldm(1)=   4.694000  celldm(2)=   0.000000  celldm(3)=   6.000000
     celldm(4)=   0.000000  celldm(5)=   0.000000  celldm(6)=   0.000000

     crystal axes: (cart. coord. in units of alat)
               a(1) = (   1.000000   0.000000   0.000000 )  
               a(2) = (  -0.500000   0.866025   0.000000 )  
               a(3) = (   0.000000   0.000000   6.000000 )  

     reciprocal axes: (cart. coord. in units 2 pi/alat)
               b(1) = (  1.000000  0.577350 -0.000000 )  
               b(2) = (  0.000000  1.154701  0.000000 )  
               b(3) = (  0.000000 -0.000000  0.166667 )  


     PseudoPot. # 1 for C  read from file:
     ../../../../../pseudos/C.pbe-n-kjpaw_psl.1.0.0.UPF
     MD5 check sum: 5d2aebdfa2cae82b50a7e79e9516da0f
     Pseudo is Projector augmented-wave + core cor, Zval =  4.0
     Generated using "atomic" code by A. Dal Corso  v.5.1
     Shape of augmentation charge: PSQ
     Using radial grid of 1073 points,  4 beta functions with: 
                l(1) =   0
                l(2) =   0
                l(3) =   1
                l(4) =   1
     Q(r) pseudized with 0 coefficients 


     atomic species   valence    mass     pseudopotential
     C                 4.00    12.01070     C ( 1.00)

     24 Sym. Ops., with inversion, found (12 have fractional translation)



   Cartesian axes

     site n.     atom                  positions (alat units)
         1        C      tau(   1) = (   0.0000000   0.0000000   0.0000000  )
         2        C      tau(   2) = (   0.0000000   0.5773503   0.0000000  )

     number of k points=     1  Gaussian smearing, width (Ry)=  0.0100
                       cart. coord. in units 2pi/alat
        k(    1) = (   0.0000000   0.0000000   0.0000000), wk =   2.0000000

     Dense  grid:    86543 G-vectors     FFT dimensions: (  36,  36, 192)

     Smooth grid:    21859 G-vectors     FFT dimensions: (  24,  24, 125)

     Estimated max dynamical RAM per process >     113.49 MB

     Initial potential from superposition of free atoms

     starting charge       7.9999, renormalised to       8.0000

     negative rho (up, down):  1.080E-05 0.000E+00
     Starting wfcs are    8 randomized atomic wfcs

     total cpu time spent up to now is        1.2 secs

     Self-consistent Calculation

     iteration #  1     ecut=    45.00 Ry     beta= 0.70
     Davidson diagonalization with overlap
     ethr =  1.00E-02,  avg # of iterations =  5.0

     negative rho (up, down):  3.352E-05 0.000E+00

     total cpu time spent up to now is        1.6 secs

     total energy              =     -36.34413686 Ry
     estimated scf accuracy    <       0.35408536 Ry

     iteration #  2     ecut=    45.00 Ry     beta= 0.70
     Davidson diagonalization with overlap
     ethr =  4.43E-03,  avg # of iterations =  2.0

     negative rho (up, down):  4.135E-05 0.000E+00

     total cpu time spent up to now is        2.0 secs

     total energy              =     -36.38838271 Ry
     estimated scf accuracy    <       0.01062410 Ry

     iteration #  3     ecut=    45.00 Ry     beta= 0.70
     Davidson diagonalization with overlap
     ethr =  1.33E-04,  avg # of iterations =  6.0

     negative rho (up, down):  4.879E-05 0.000E+00

     total cpu time spent up to now is        2.3 secs

     total energy              =     -36.38876568 Ry
     estimated scf accuracy    <       0.00065854 Ry

     iteration #  4     ecut=    45.00 Ry     beta= 0.70
     Davidson diagonalization with overlap
     ethr =  8.23E-06,  avg # of iterations =  9.0

     negative rho (up, down):  5.023E-05 0.000E+00

     total cpu time spent up to now is        2.6 secs

     total energy              =     -36.38878260 Ry
     estimated scf accuracy    <       0.00000221 Ry

     iteration #  5     ecut=    45.00 Ry     beta= 0.70
     Davidson diagonalization with overlap
     ethr =  2.77E-08,  avg # of iterations =  2.0

     negative rho (up, down):  5.039E-05 0.000E+00

     total cpu time spent up to now is        3.0 secs

     total energy              =     -36.38878291 Ry
     estimated scf accuracy    <       0.00000002 Ry

     iteration #  6     ecut=    45.00 Ry     beta= 0.70
     Davidson diagonalization with overlap
     ethr =  2.62E-10,  avg # of iterations =  2.0

     negative rho (up, down):  5.047E-05 0.000E+00

     total cpu time spent up to now is        3.3 secs

     End of self-consistent calculation

          k = 0.0000 0.0000 0.0000 (  2641 PWs)   bands (ev):

   -20.9954  -9.3384  -4.4445  -4.4445   1.3731   2.3598   2.8327   4.7541

     the Fermi energy is    -1.0030 ev

!    total energy              =     -36.38878291 Ry
     total all-electron energy =      -151.916979 Ry
     estimated scf accuracy    <          3.7E-10 Ry
     smearing contrib. (-TS)   =      -0.00000000 Ry
     internal energy E=F+TS    =     -36.38878291 Ry

     The total energy is F=E-TS. E is the sum of the following terms:
     one-electron contribution =    -152.76201786 Ry
     hartree contribution      =      78.34242309 Ry
     xc contribution           =      -9.38934645 Ry
     ewald contribution        =      59.68301699 Ry
     one-center paw contrib.   =     -12.26285869 Ry

     convergence has been achieved in   6 iterations

     Writing all to output data dir ./tmp/graphene.save/ :
     XML data file, charge density, pseudopotentials, collected wavefunctions

     init_run     :      1.08s CPU      1.11s WALL (       1 calls)
     electrons    :      2.83s CPU      2.08s WALL (       1 calls)

     Called by init_run:
     wfcinit      :      0.12s CPU      0.10s WALL (       1 calls)
     potinit      :      0.31s CPU      0.34s WALL (       1 calls)
     hinit0       :      0.57s CPU      0.58s WALL (       1 calls)

     Called by electrons:
     c_bands      :      0.37s CPU      0.20s WALL (       6 calls)
     sum_band     :      0.97s CPU      0.52s WALL (       6 calls)
     v_of_rho     :      0.80s CPU      0.63s WALL (       7 calls)
     newd         :      0.28s CPU      0.37s WALL (       7 calls)
     PAW_pot      :      0.46s CPU      0.46s WALL (       7 calls)
     mix_rho      :      0.08s CPU      0.06s WALL (       6 calls)

     Called by c_bands:
     init_us_2    :      0.01s CPU      0.01s WALL (      13 calls)
     cegterg      :      0.36s CPU      0.20s WALL (       6 calls)

     Called by *egterg:
     cdiaghg      :      0.01s CPU      0.00s WALL (      32 calls)
     h_psi        :      0.42s CPU      0.27s WALL (      33 calls)
     s_psi        :      0.01s CPU      0.00s WALL (      33 calls)
     g_psi        :      0.00s CPU      0.00s WALL (      26 calls)

     Called by h_psi:
     h_psi:calbec :      0.01s CPU      0.00s WALL (      33 calls)
     vloc_psi     :      0.40s CPU      0.26s WALL (      33 calls)
     add_vuspsi   :      0.01s CPU      0.00s WALL (      33 calls)

     General routines
     calbec       :      0.01s CPU      0.01s WALL (      39 calls)
     fft          :      0.74s CPU      0.67s WALL (      89 calls)
     ffts         :      0.18s CPU      0.17s WALL (      13 calls)
     fftw         :      0.35s CPU      0.23s WALL (     328 calls)
     interpolate  :      0.18s CPU      0.18s WALL (       7 calls)


     PWSCF        :      4.13s CPU      3.33s WALL


   This run was terminated on:  17: 0: 0   9Sep2025            

=------------------------------------------------------------------------------=
   JOB DONE.
=------------------------------------------------------------------------------=
