
     Program PWSCF v.7.4.1 starts on  9Sep2025 at  8:42:30 

     This program is part of the open-source Quantum ESPRESSO suite
     for quantum simulation of materials; please cite
         "P. Giannozzi et al., J. Phys.:Condens. Matter 21 395502 (2009);
         "P. Giannozzi et al., J. Phys.:Condens. Matter 29 465901 (2017);
         "P. Giannozzi et al., J. Chem. Phys. 152 154105 (2020);
          URL http://www.quantum-espresso.org", 
     in publications or presentations arising from this work. More details at
     http://www.quantum-espresso.org/quote

     Serial version
     7559 MiB available memory on the printing compute node when the environment starts

     Waiting for input...
     Reading input from standard input

     Current dimensions of program PWSCF are:
     Max number of different atomic species (ntypx) = 10
     Max number of k-points (npk) =  40000
     Max angular momentum in pseudopotentials (lmaxx) =  4
     file C.pbe-n-kjpaw_psl.1.0.0.UPF: wavefunction(s)  2S 2P renormalized


     G-vector sticks info
     --------------------
     sticks:   dense  smooth     PW     G-vecs:    dense   smooth      PW
     Sum        1099     439    139               176875    44823    7435

     Using Slab Decomposition



     bravais-lattice index     =            4
     lattice parameter (alat)  =       4.6140  a.u.
     unit-cell volume          =     510.4047 (a.u.)^3
     number of atoms/cell      =            2
     number of atomic types    =            1
     number of electrons       =         8.00
     number of Kohn-Sham states=            8
     kinetic-energy cutoff     =      75.0000  Ry
     charge density cutoff     =     750.0000  Ry
     scf convergence threshold =      1.0E-08
     mixing beta               =       0.7000
     number of iterations used =            8  plain     mixing
     Exchange-correlation= SLA  PW   PBX  PBC
                           (   1   4   3   4   0   0   0)

     celldm(1)=   4.614000  celldm(2)=   0.000000  celldm(3)=   6.000000
     celldm(4)=   0.000000  celldm(5)=   0.000000  celldm(6)=   0.000000

     crystal axes: (cart. coord. in units of alat)
               a(1) = (   1.000000   0.000000   0.000000 )  
               a(2) = (  -0.500000   0.866025   0.000000 )  
               a(3) = (   0.000000   0.000000   6.000000 )  

     reciprocal axes: (cart. coord. in units 2 pi/alat)
               b(1) = (  1.000000  0.577350 -0.000000 )  
               b(2) = (  0.000000  1.154701  0.000000 )  
               b(3) = (  0.000000 -0.000000  0.166667 )  


     PseudoPot. # 1 for C  read from file:
     ../../../../../pseudos/C.pbe-n-kjpaw_psl.1.0.0.UPF
     MD5 check sum: 5d2aebdfa2cae82b50a7e79e9516da0f
     Pseudo is Projector augmented-wave + core cor, Zval =  4.0
     Generated using "atomic" code by A. Dal Corso  v.5.1
     Shape of augmentation charge: PSQ
     Using radial grid of 1073 points,  4 beta functions with: 
                l(1) =   0
                l(2) =   0
                l(3) =   1
                l(4) =   1
     Q(r) pseudized with 0 coefficients 


     atomic species   valence    mass     pseudopotential
     C                 4.00    12.01070     C ( 1.00)

     24 Sym. Ops., with inversion, found (12 have fractional translation)



   Cartesian axes

     site n.     atom                  positions (alat units)
         1        C      tau(   1) = (   0.0000000   0.0000000   0.0000000  )
         2        C      tau(   2) = (   0.0000000   0.5773503   0.0000000  )

     number of k points=    12  Gaussian smearing, width (Ry)=  0.0100
                       cart. coord. in units 2pi/alat
        k(    1) = (   0.0000000   0.0000000   0.0000000), wk =   0.0246914
        k(    2) = (   0.0000000   0.1283001   0.0000000), wk =   0.1481481
        k(    3) = (   0.0000000   0.2566001   0.0000000), wk =   0.1481481
        k(    4) = (   0.0000000   0.3849002   0.0000000), wk =   0.1481481
        k(    5) = (   0.0000000   0.5132002   0.0000000), wk =   0.1481481
        k(    6) = (   0.1111111   0.1924501   0.0000000), wk =   0.1481481
        k(    7) = (   0.1111111   0.3207501   0.0000000), wk =   0.2962963
        k(    8) = (   0.1111111   0.4490502   0.0000000), wk =   0.2962963
        k(    9) = (   0.1111111   0.5773503   0.0000000), wk =   0.1481481
        k(   10) = (   0.2222222   0.3849002   0.0000000), wk =   0.1481481
        k(   11) = (   0.2222222   0.5132002   0.0000000), wk =   0.2962963
        k(   12) = (   0.3333333   0.5773503   0.0000000), wk =   0.0493827

     Dense  grid:   176875 G-vectors     FFT dimensions: (  45,  45, 243)

     Smooth grid:    44823 G-vectors     FFT dimensions: (  27,  27, 160)

     Estimated max dynamical RAM per process >     238.65 MB

     Initial potential from superposition of free atoms

     starting charge       7.9999, renormalised to       8.0000

     negative rho (up, down):  3.118E-06 0.000E+00
     Starting wfcs are    8 randomized atomic wfcs

     total cpu time spent up to now is        4.3 secs

     Self-consistent Calculation

     iteration #  1     ecut=    75.00 Ry     beta= 0.70
     Davidson diagonalization with overlap
     ethr =  1.00E-02,  avg # of iterations =  5.8

     negative rho (up, down):  3.885E-06 0.000E+00

     total cpu time spent up to now is        9.4 secs

     total energy              =     -36.85690394 Ry
     estimated scf accuracy    <       0.20759503 Ry

     iteration #  2     ecut=    75.00 Ry     beta= 0.70
     Davidson diagonalization with overlap
     ethr =  2.59E-03,  avg # of iterations =  3.5

     negative rho (up, down):  8.469E-06 0.000E+00

     total cpu time spent up to now is       14.9 secs

     total energy              =     -36.88550485 Ry
     estimated scf accuracy    <       0.00197696 Ry

     iteration #  3     ecut=    75.00 Ry     beta= 0.70
     Davidson diagonalization with overlap
     ethr =  2.47E-05,  avg # of iterations = 11.0

     negative rho (up, down):  1.282E-05 0.000E+00

     total cpu time spent up to now is       22.6 secs

     total energy              =     -36.88585131 Ry
     estimated scf accuracy    <       0.00015667 Ry

     iteration #  4     ecut=    75.00 Ry     beta= 0.70
     Davidson diagonalization with overlap
     ethr =  1.96E-06,  avg # of iterations =  5.3

     negative rho (up, down):  1.333E-05 0.000E+00

     total cpu time spent up to now is       27.2 secs

     total energy              =     -36.88586394 Ry
     estimated scf accuracy    <       0.00000275 Ry

     iteration #  5     ecut=    75.00 Ry     beta= 0.70
     Davidson diagonalization with overlap
     ethr =  3.44E-08,  avg # of iterations =  2.7

     negative rho (up, down):  1.338E-05 0.000E+00

     total cpu time spent up to now is       30.5 secs

     total energy              =     -36.88586521 Ry
     estimated scf accuracy    <       0.00000010 Ry

     iteration #  6     ecut=    75.00 Ry     beta= 0.70
     Davidson diagonalization with overlap
     ethr =  1.24E-09,  avg # of iterations =  2.5

     negative rho (up, down):  1.341E-05 0.000E+00

     total cpu time spent up to now is       33.7 secs

     End of self-consistent calculation

          k = 0.0000 0.0000 0.0000 (  5597 PWs)   bands (ev):

   -21.3083  -9.3651  -4.5802  -4.5802   1.5854   2.4888   2.8932   4.9170

          k = 0.0000 0.1283 0.0000 (  5637 PWs)   bands (ev):

   -21.0120  -9.0088  -5.7091  -5.1704   1.9900   2.8967   3.3040   5.3213

          k = 0.0000 0.2566 0.0000 (  5621 PWs)   bands (ev):

   -20.1288  -8.2950  -7.9576  -6.3580   3.2030   4.1130   4.5363   6.4609

          k = 0.0000 0.3849 0.0000 (  5621 PWs)   bands (ev):

   -18.6790 -11.2728  -7.4050  -6.2925   3.4910   5.2115   6.1713   6.4291

          k = 0.0000 0.5132 0.0000 (  5597 PWs)   bands (ev):

   -16.7328 -14.0718  -7.9829  -4.3985   0.7120   6.1774   8.0288   8.9686

          k = 0.1111 0.1925 0.0000 (  5611 PWs)   bands (ev):

   -20.4222  -8.3043  -7.2816  -6.3481   2.7997   3.7104   4.1261   6.1263

          k = 0.1111 0.3208 0.0000 (  5611 PWs)   bands (ev):

   -19.2557  -9.7688  -7.7637  -6.9363   4.4149   4.7826   5.3534   5.7695

          k = 0.1111 0.4491 0.0000 (  5587 PWs)   bands (ev):

   -17.5488 -12.5788  -8.6613  -5.0621   1.8589   6.8092   7.5532   7.7339

          k = 0.1111 0.5774 0.0000 (  5562 PWs)   bands (ev):

   -15.7426 -14.7928  -8.9669  -3.6866   0.0806   7.3945   9.8856  10.0467

          k = 0.2222 0.3849 0.0000 (  5574 PWs)   bands (ev):

   -17.8301 -11.2900  -9.8321  -5.3150   2.5149   6.4217   7.2830   7.8220

          k = 0.2222 0.5132 0.0000 (  5580 PWs)   bands (ev):

   -15.9402 -13.4535 -10.8424  -3.3886   0.2133   9.1609   9.4011  10.2899

          k = 0.3333 0.5774 0.0000 (  5460 PWs)   bands (ev):

   -14.2373 -14.2373 -12.3326  -1.5380  -1.5380   9.1214  11.5382  11.5383

     the Fermi energy is    -1.5380 ev

!    total energy              =     -36.88586524 Ry
     total all-electron energy =      -152.414061 Ry
     estimated scf accuracy    <          5.5E-10 Ry
     smearing contrib. (-TS)   =      -0.00027861 Ry
     internal energy E=F+TS    =     -36.88558662 Ry

     The total energy is F=E-TS. E is the sum of the following terms:
     one-electron contribution =    -155.23469563 Ry
     hartree contribution      =      79.28651970 Ry
     xc contribution           =      -9.31919374 Ry
     ewald contribution        =      60.71783306 Ry
     one-center paw contrib.   =     -12.33605002 Ry

     convergence has been achieved in   6 iterations

     Writing all to output data dir ./tmp/graphene.save/ :
     XML data file, charge density, pseudopotentials, collected wavefunctions

     init_run     :      3.47s CPU      4.07s WALL (       1 calls)
     electrons    :     25.32s CPU     29.39s WALL (       1 calls)

     Called by init_run:
     wfcinit      :      1.15s CPU      1.02s WALL (       1 calls)
     potinit      :      0.98s CPU      1.15s WALL (       1 calls)
     hinit0       :      1.05s CPU      1.32s WALL (       1 calls)

     Called by electrons:
     c_bands      :     18.44s CPU     20.42s WALL (       6 calls)
     sum_band     :      2.89s CPU      3.23s WALL (       6 calls)
     v_of_rho     :      2.31s CPU      3.45s WALL (       7 calls)
     newd         :      1.01s CPU      1.61s WALL (       7 calls)
     PAW_pot      :      0.85s CPU      0.95s WALL (       7 calls)
     mix_rho      :      0.24s CPU      0.25s WALL (       6 calls)

     Called by c_bands:
     init_us_2    :      0.31s CPU      0.29s WALL (     156 calls)
     cegterg      :     18.01s CPU     20.09s WALL (      72 calls)

     Called by *egterg:
     cdiaghg      :      0.11s CPU      0.08s WALL (     441 calls)
     h_psi        :     17.21s CPU     18.78s WALL (     453 calls)
     s_psi        :      0.29s CPU      0.38s WALL (     453 calls)
     g_psi        :      0.07s CPU      0.04s WALL (     369 calls)

     Called by h_psi:
     h_psi:calbec :      0.37s CPU      0.62s WALL (     453 calls)
     vloc_psi     :     15.62s CPU     15.14s WALL (     453 calls)
     add_vuspsi   :      1.16s CPU      2.97s WALL (     453 calls)

     General routines
     calbec       :      0.40s CPU      0.65s WALL (     525 calls)
     fft          :      2.12s CPU      2.55s WALL (      89 calls)
     ffts         :      0.46s CPU      0.54s WALL (      13 calls)
     fftw         :     11.73s CPU     11.28s WALL (    4482 calls)
     interpolate  :      0.57s CPU      0.66s WALL (       7 calls)


     PWSCF        :     28.95s CPU     33.74s WALL


   This run was terminated on:   8:43: 4   9Sep2025            

=------------------------------------------------------------------------------=
   JOB DONE.
=------------------------------------------------------------------------------=
