
     Program PWSCF v.7.4.1 starts on  9Sep2025 at  8:34:53 

     This program is part of the open-source Quantum ESPRESSO suite
     for quantum simulation of materials; please cite
         "P. Giannozzi et al., J. Phys.:Condens. Matter 21 395502 (2009);
         "P. Giannozzi et al., J. Phys.:Condens. Matter 29 465901 (2017);
         "P. Giannozzi et al., J. Chem. Phys. 152 154105 (2020);
          URL http://www.quantum-espresso.org", 
     in publications or presentations arising from this work. More details at
     http://www.quantum-espresso.org/quote

     Serial version
     8332 MiB available memory on the printing compute node when the environment starts

     Waiting for input...
     Reading input from standard input

     Current dimensions of program PWSCF are:
     Max number of different atomic species (ntypx) = 10
     Max number of k-points (npk) =  40000
     Max angular momentum in pseudopotentials (lmaxx) =  4
     file C.pbe-n-kjpaw_psl.1.0.0.UPF: wavefunction(s)  2S 2P renormalized


     G-vector sticks info
     --------------------
     sticks:   dense  smooth     PW     G-vecs:    dense   smooth      PW
     Sum         451     187     61                47069    11949    2325

     Using Slab Decomposition



     bravais-lattice index     =            4
     lattice parameter (alat)  =       4.6940  a.u.
     unit-cell volume          =     537.4167 (a.u.)^3
     number of atoms/cell      =            2
     number of atomic types    =            1
     number of electrons       =         8.00
     number of Kohn-Sham states=            8
     kinetic-energy cutoff     =      30.0000  Ry
     charge density cutoff     =     300.0000  Ry
     scf convergence threshold =      1.0E-08
     mixing beta               =       0.7000
     number of iterations used =            8  plain     mixing
     Exchange-correlation= SLA  PW   PBX  PBC
                           (   1   4   3   4   0   0   0)

     celldm(1)=   4.694000  celldm(2)=   0.000000  celldm(3)=   6.000000
     celldm(4)=   0.000000  celldm(5)=   0.000000  celldm(6)=   0.000000

     crystal axes: (cart. coord. in units of alat)
               a(1) = (   1.000000   0.000000   0.000000 )  
               a(2) = (  -0.500000   0.866025   0.000000 )  
               a(3) = (   0.000000   0.000000   6.000000 )  

     reciprocal axes: (cart. coord. in units 2 pi/alat)
               b(1) = (  1.000000  0.577350 -0.000000 )  
               b(2) = (  0.000000  1.154701  0.000000 )  
               b(3) = (  0.000000 -0.000000  0.166667 )  


     PseudoPot. # 1 for C  read from file:
     ../../../../../pseudos/C.pbe-n-kjpaw_psl.1.0.0.UPF
     MD5 check sum: 5d2aebdfa2cae82b50a7e79e9516da0f
     Pseudo is Projector augmented-wave + core cor, Zval =  4.0
     Generated using "atomic" code by A. Dal Corso  v.5.1
     Shape of augmentation charge: PSQ
     Using radial grid of 1073 points,  4 beta functions with: 
                l(1) =   0
                l(2) =   0
                l(3) =   1
                l(4) =   1
     Q(r) pseudized with 0 coefficients 


     atomic species   valence    mass     pseudopotential
     C                 4.00    12.01070     C ( 1.00)

     24 Sym. Ops., with inversion, found (12 have fractional translation)



   Cartesian axes

     site n.     atom                  positions (alat units)
         1        C      tau(   1) = (   0.0000000   0.0000000   0.0000000  )
         2        C      tau(   2) = (   0.0000000   0.5773503   0.0000000  )

     number of k points=    12  Gaussian smearing, width (Ry)=  0.0100
                       cart. coord. in units 2pi/alat
        k(    1) = (   0.0000000   0.0000000   0.0000000), wk =   0.0246914
        k(    2) = (   0.0000000   0.1283001   0.0000000), wk =   0.1481481
        k(    3) = (   0.0000000   0.2566001   0.0000000), wk =   0.1481481
        k(    4) = (   0.0000000   0.3849002   0.0000000), wk =   0.1481481
        k(    5) = (   0.0000000   0.5132002   0.0000000), wk =   0.1481481
        k(    6) = (   0.1111111   0.1924501   0.0000000), wk =   0.1481481
        k(    7) = (   0.1111111   0.3207501   0.0000000), wk =   0.2962963
        k(    8) = (   0.1111111   0.4490502   0.0000000), wk =   0.2962963
        k(    9) = (   0.1111111   0.5773503   0.0000000), wk =   0.1481481
        k(   10) = (   0.2222222   0.3849002   0.0000000), wk =   0.1481481
        k(   11) = (   0.2222222   0.5132002   0.0000000), wk =   0.2962963
        k(   12) = (   0.3333333   0.5773503   0.0000000), wk =   0.0493827

     Dense  grid:    47069 G-vectors     FFT dimensions: (  27,  27, 160)

     Smooth grid:    11949 G-vectors     FFT dimensions: (  18,  18, 100)

     Estimated max dynamical RAM per process >      62.76 MB

     Check: negative core charge=   -0.000003

     Initial potential from superposition of free atoms

     starting charge       7.9999, renormalised to       8.0000

     negative rho (up, down):  4.853E-05 0.000E+00
     Starting wfcs are    8 randomized atomic wfcs

     total cpu time spent up to now is        1.2 secs

     Self-consistent Calculation

     iteration #  1     ecut=    30.00 Ry     beta= 0.70
     Davidson diagonalization with overlap
     ethr =  1.00E-02,  avg # of iterations =  6.2

     negative rho (up, down):  1.473E-05 0.000E+00

     total cpu time spent up to now is        1.8 secs

     total energy              =     -36.84332706 Ry
     estimated scf accuracy    <       0.18280469 Ry

     iteration #  2     ecut=    30.00 Ry     beta= 0.70
     Davidson diagonalization with overlap
     ethr =  2.29E-03,  avg # of iterations =  2.8

     negative rho (up, down):  1.450E-05 0.000E+00

     total cpu time spent up to now is        2.3 secs

     total energy              =     -36.87022011 Ry
     estimated scf accuracy    <       0.00229568 Ry

     iteration #  3     ecut=    30.00 Ry     beta= 0.70
     Davidson diagonalization with overlap
     ethr =  2.87E-05,  avg # of iterations = 10.2

     negative rho (up, down):  5.187E-05 0.000E+00

     total cpu time spent up to now is        3.0 secs

     total energy              =     -36.87040620 Ry
     estimated scf accuracy    <       0.00016348 Ry

     iteration #  4     ecut=    30.00 Ry     beta= 0.70
     Davidson diagonalization with overlap
     ethr =  2.04E-06,  avg # of iterations =  3.6

     negative rho (up, down):  2.158E-05 0.000E+00

     total cpu time spent up to now is        3.4 secs

     total energy              =     -36.87041364 Ry
     estimated scf accuracy    <       0.00000069 Ry

     iteration #  5     ecut=    30.00 Ry     beta= 0.70
     Davidson diagonalization with overlap
     ethr =  8.56E-09,  avg # of iterations =  3.0

     negative rho (up, down):  1.629E-05 0.000E+00

     total cpu time spent up to now is        3.9 secs

     total energy              =     -36.87041419 Ry
     estimated scf accuracy    <       0.00000002 Ry

     iteration #  6     ecut=    30.00 Ry     beta= 0.70
     Davidson diagonalization with overlap
     ethr =  2.91E-10,  avg # of iterations =  2.2

     negative rho (up, down):  1.568E-05 0.000E+00

     total cpu time spent up to now is        4.3 secs

     End of self-consistent calculation

          k = 0.0000 0.0000 0.0000 (  1459 PWs)   bands (ev):

   -21.1688  -9.2628  -4.8149  -4.8148   1.4364   2.2771   2.5645   4.5517

          k = 0.0000 0.1283 0.0000 (  1453 PWs)   bands (ev):

   -20.8809  -8.9194  -5.9372  -5.3781   1.8287   2.6719   2.9610   4.9419

          k = 0.0000 0.2566 0.0000 (  1479 PWs)   bands (ev):

   -20.0234  -8.4775  -7.9116  -6.5160   3.0043   3.8489   4.1501   5.9736

          k = 0.0000 0.3849 0.0000 (  1505 PWs)   bands (ev):

   -18.6179 -11.3809  -7.5244  -6.3176   3.0571   4.9485   5.7131   5.8355

          k = 0.0000 0.5132 0.0000 (  1509 PWs)   bands (ev):

   -16.7473 -14.0831  -8.0795  -4.5116   0.4218   5.4107   7.6754   8.5453

          k = 0.1111 0.1925 0.0000 (  1458 PWs)   bands (ev):

   -20.3082  -8.2414  -7.4955  -6.5033   2.6133   3.4594   3.7544   5.7184

          k = 0.1111 0.3208 0.0000 (  1495 PWs)   bands (ev):

   -19.1764  -9.9279  -7.8731  -6.9327   4.1782   4.2761   5.0402   5.3397

          k = 0.1111 0.4491 0.0000 (  1497 PWs)   bands (ev):

   -17.5252 -12.6528  -8.7436  -5.1398   1.4992   6.4838   6.7867   7.3538

          k = 0.1111 0.5774 0.0000 (  1498 PWs)   bands (ev):

   -15.8384 -14.7365  -9.0400  -3.8325  -0.1863   6.6019   9.4739   9.6316

          k = 0.2222 0.3849 0.0000 (  1496 PWs)   bands (ev):

   -17.7955 -11.4457  -9.8473  -5.3795   2.1042   6.1222   6.9233   7.3193

          k = 0.2222 0.5132 0.0000 (  1501 PWs)   bands (ev):

   -15.9782 -13.5220 -10.8408  -3.5415  -0.0908   8.7704   9.0157   9.4607

          k = 0.3333 0.5774 0.0000 (  1518 PWs)   bands (ev):

   -14.3529 -14.3529 -12.1991  -1.7739  -1.7739   8.7913  10.9401  10.9401

     the Fermi energy is    -1.7739 ev

!    total energy              =     -36.87041420 Ry
     total all-electron energy =      -152.398610 Ry
     estimated scf accuracy    <          1.5E-09 Ry
     smearing contrib. (-TS)   =      -0.00027861 Ry
     internal energy E=F+TS    =     -36.87013559 Ry

     The total energy is F=E-TS. E is the sum of the following terms:
     one-electron contribution =    -153.16335957 Ry
     hartree contribution      =      78.18207008 Ry
     xc contribution           =      -9.23805487 Ry
     ewald contribution        =      59.68301699 Ry
     one-center paw contrib.   =     -12.33380822 Ry

     convergence has been achieved in   6 iterations

     Writing all to output data dir ./tmp/graphene.save/ :
     XML data file, charge density, pseudopotentials, collected wavefunctions

     init_run     :      1.18s CPU      1.11s WALL (       1 calls)
     electrons    :      5.20s CPU      3.09s WALL (       1 calls)

     Called by init_run:
     wfcinit      :      0.32s CPU      0.22s WALL (       1 calls)
     potinit      :      0.36s CPU      0.38s WALL (       1 calls)
     hinit0       :      0.46s CPU      0.47s WALL (       1 calls)

     Called by electrons:
     c_bands      :      2.95s CPU      1.66s WALL (       6 calls)
     sum_band     :      0.88s CPU      0.45s WALL (       6 calls)
     v_of_rho     :      0.67s CPU      0.41s WALL (       7 calls)
     newd         :      0.16s CPU      0.15s WALL (       7 calls)
     PAW_pot      :      0.60s CPU      0.52s WALL (       7 calls)
     mix_rho      :      0.06s CPU      0.03s WALL (       6 calls)

     Called by c_bands:
     init_us_2    :      0.09s CPU      0.05s WALL (     156 calls)
     cegterg      :      2.84s CPU      1.59s WALL (      72 calls)

     Called by *egterg:
     cdiaghg      :      0.10s CPU      0.05s WALL (     408 calls)
     h_psi        :      2.67s CPU      1.55s WALL (     420 calls)
     s_psi        :      0.05s CPU      0.03s WALL (     420 calls)
     g_psi        :      0.02s CPU      0.01s WALL (     336 calls)

     Called by h_psi:
     h_psi:calbec :      0.06s CPU      0.04s WALL (     420 calls)
     vloc_psi     :      2.50s CPU      1.44s WALL (     420 calls)
     add_vuspsi   :      0.09s CPU      0.07s WALL (     420 calls)

     General routines
     calbec       :      0.08s CPU      0.05s WALL (     492 calls)
     fft          :      0.61s CPU      0.52s WALL (      89 calls)
     ffts         :      0.24s CPU      0.23s WALL (      13 calls)
     fftw         :      2.25s CPU      1.34s WALL (    4274 calls)
     interpolate  :      0.24s CPU      0.24s WALL (       7 calls)


     PWSCF        :      6.60s CPU      4.34s WALL


   This run was terminated on:   8:34:57   9Sep2025            

=------------------------------------------------------------------------------=
   JOB DONE.
=------------------------------------------------------------------------------=
