
     Program PWSCF v.7.4.1 starts on  9Sep2025 at 17:12:27 

     This program is part of the open-source Quantum ESPRESSO suite
     for quantum simulation of materials; please cite
         "P. Giannozzi et al., J. Phys.:Condens. Matter 21 395502 (2009);
         "P. Giannozzi et al., J. Phys.:Condens. Matter 29 465901 (2017);
         "P. Giannozzi et al., J. Chem. Phys. 152 154105 (2020);
          URL http://www.quantum-espresso.org", 
     in publications or presentations arising from this work. More details at
     http://www.quantum-espresso.org/quote

     Serial version
     21825 MiB available memory on the printing compute node when the environment starts

     Waiting for input...
     Reading input from standard input

     Current dimensions of program PWSCF are:
     Max number of different atomic species (ntypx) = 10
     Max number of k-points (npk) =  40000
     Max angular momentum in pseudopotentials (lmaxx) =  4
     file C.pbe-n-kjpaw_psl.1.0.0.UPF: wavefunction(s)  2S 2P renormalized


     G-vector sticks info
     --------------------
     sticks:   dense  smooth     PW     G-vecs:    dense   smooth      PW
     Sum         661     253     85                82267    20639    3715

     Using Slab Decomposition



     bravais-lattice index     =            4
     lattice parameter (alat)  =       4.6140  a.u.
     unit-cell volume          =     510.4047 (a.u.)^3
     number of atoms/cell      =            2
     number of atomic types    =            1
     number of electrons       =         8.00
     number of Kohn-Sham states=            8
     kinetic-energy cutoff     =      45.0000  Ry
     charge density cutoff     =     450.0000  Ry
     scf convergence threshold =      1.0E-08
     mixing beta               =       0.7000
     number of iterations used =            8  plain     mixing
     Exchange-correlation= SLA  PW   PBX  PBC
                           (   1   4   3   4   0   0   0)

     celldm(1)=   4.614000  celldm(2)=   0.000000  celldm(3)=   6.000000
     celldm(4)=   0.000000  celldm(5)=   0.000000  celldm(6)=   0.000000

     crystal axes: (cart. coord. in units of alat)
               a(1) = (   1.000000   0.000000   0.000000 )  
               a(2) = (  -0.500000   0.866025   0.000000 )  
               a(3) = (   0.000000   0.000000   6.000000 )  

     reciprocal axes: (cart. coord. in units 2 pi/alat)
               b(1) = (  1.000000  0.577350 -0.000000 )  
               b(2) = (  0.000000  1.154701  0.000000 )  
               b(3) = (  0.000000 -0.000000  0.166667 )  


     PseudoPot. # 1 for C  read from file:
     ../../../../../pseudos/C.pbe-n-kjpaw_psl.1.0.0.UPF
     MD5 check sum: 5d2aebdfa2cae82b50a7e79e9516da0f
     Pseudo is Projector augmented-wave + core cor, Zval =  4.0
     Generated using "atomic" code by A. Dal Corso  v.5.1
     Shape of augmentation charge: PSQ
     Using radial grid of 1073 points,  4 beta functions with: 
                l(1) =   0
                l(2) =   0
                l(3) =   1
                l(4) =   1
     Q(r) pseudized with 0 coefficients 


     atomic species   valence    mass     pseudopotential
     C                 4.00    12.01070     C ( 1.00)

     24 Sym. Ops., with inversion, found (12 have fractional translation)



   Cartesian axes

     site n.     atom                  positions (alat units)
         1        C      tau(   1) = (   0.0000000   0.0000000   0.0000000  )
         2        C      tau(   2) = (   0.0000000   0.5773503   0.0000000  )

     number of k points=     8  Gaussian smearing, width (Ry)=  0.0100
                       cart. coord. in units 2pi/alat
        k(    1) = (   0.0000000   0.0000000   0.0000000), wk =   0.0408163
        k(    2) = (   0.0000000   0.1649572   0.0000000), wk =   0.2448980
        k(    3) = (   0.0000000   0.3299144   0.0000000), wk =   0.2448980
        k(    4) = (   0.0000000   0.4948717   0.0000000), wk =   0.2448980
        k(    5) = (   0.1428571   0.2474358   0.0000000), wk =   0.2448980
        k(    6) = (   0.1428571   0.4123930   0.0000000), wk =   0.4897959
        k(    7) = (   0.1428571   0.5773503   0.0000000), wk =   0.2448980
        k(    8) = (   0.2857143   0.4948717   0.0000000), wk =   0.2448980

     Dense  grid:    82267 G-vectors     FFT dimensions: (  36,  36, 192)

     Smooth grid:    20639 G-vectors     FFT dimensions: (  24,  24, 120)

     Estimated max dynamical RAM per process >     111.29 MB

     Initial potential from superposition of free atoms

     starting charge       7.9999, renormalised to       8.0000

     negative rho (up, down):  9.733E-06 0.000E+00
     Starting wfcs are    8 randomized atomic wfcs

     total cpu time spent up to now is        1.8 secs

     Self-consistent Calculation

     iteration #  1     ecut=    45.00 Ry     beta= 0.70
     Davidson diagonalization with overlap
     ethr =  1.00E-02,  avg # of iterations =  6.1

     negative rho (up, down):  2.395E-05 0.000E+00

     total cpu time spent up to now is        2.6 secs

     total energy              =     -36.85550901 Ry
     estimated scf accuracy    <       0.21229509 Ry

     iteration #  2     ecut=    45.00 Ry     beta= 0.70
     Davidson diagonalization with overlap
     ethr =  2.65E-03,  avg # of iterations =  2.4

     negative rho (up, down):  3.456E-05 0.000E+00

     total cpu time spent up to now is        3.2 secs

     total energy              =     -36.88662421 Ry
     estimated scf accuracy    <       0.00222126 Ry

     iteration #  3     ecut=    45.00 Ry     beta= 0.70
     Davidson diagonalization with overlap
     ethr =  2.78E-05,  avg # of iterations =  9.0

     negative rho (up, down):  4.272E-05 0.000E+00

     total cpu time spent up to now is        4.1 secs

     total energy              =     -36.88689297 Ry
     estimated scf accuracy    <       0.00016242 Ry

     iteration #  4     ecut=    45.00 Ry     beta= 0.70
     Davidson diagonalization with overlap
     ethr =  2.03E-06,  avg # of iterations =  3.0

     negative rho (up, down):  4.369E-05 0.000E+00

     total cpu time spent up to now is        4.7 secs

     total energy              =     -36.88690342 Ry
     estimated scf accuracy    <       0.00000117 Ry

     iteration #  5     ecut=    45.00 Ry     beta= 0.70
     Davidson diagonalization with overlap
     ethr =  1.46E-08,  avg # of iterations =  3.1

     negative rho (up, down):  4.386E-05 0.000E+00

     total cpu time spent up to now is        5.3 secs

     total energy              =     -36.88690427 Ry
     estimated scf accuracy    <       0.00000003 Ry

     iteration #  6     ecut=    45.00 Ry     beta= 0.70
     Davidson diagonalization with overlap
     ethr =  3.29E-10,  avg # of iterations =  2.5

     negative rho (up, down):  4.391E-05 0.000E+00

     total cpu time spent up to now is        5.9 secs

     End of self-consistent calculation

          k = 0.0000 0.0000 0.0000 (  2579 PWs)   bands (ev):

   -21.3091  -9.3647  -4.5810  -4.5810   1.5929   2.5022   2.9280   4.9442

          k = 0.0000 0.1650 0.0000 (  2571 PWs)   bands (ev):

   -20.8195  -8.7771  -6.3565  -5.4900   2.2616   3.1760   3.6073   5.6118

          k = 0.0000 0.3299 0.0000 (  2582 PWs)   bands (ev):

   -19.3677  -9.9934  -7.0704  -7.0023   4.2624   4.7892   5.2893   5.6415

          k = 0.0000 0.4949 0.0000 (  2598 PWs)   bands (ev):

   -17.0320 -13.7012  -7.9350  -4.6364   1.0258   6.1982   7.5922   8.5348

          k = 0.1429 0.2474 0.0000 (  2587 PWs)   bands (ev):

   -19.8490  -8.4742  -7.6258  -7.2970   3.5989   4.5166   4.9670   6.1104

          k = 0.1429 0.4124 0.0000 (  2605 PWs)   bands (ev):

   -17.9499 -11.7197  -8.9521  -5.4658   2.5513   6.2550   7.1616   7.6782

          k = 0.1429 0.5774 0.0000 (  2629 PWs)   bands (ev):

   -15.6198 -14.6720  -9.4789  -3.5091   0.0120   8.1170  10.0573  10.2320

          k = 0.2857 0.4949 0.0000 (  2653 PWs)   bands (ev):

   -15.7206 -13.1423 -11.6068  -3.0863  -0.0056   9.2616   9.4781  11.0428

     the Fermi energy is    -0.7490 ev

!    total energy              =     -36.88690427 Ry
     total all-electron energy =      -152.415100 Ry
     estimated scf accuracy    <          4.8E-10 Ry
     smearing contrib. (-TS)   =      -0.00000000 Ry
     internal energy E=F+TS    =     -36.88690427 Ry

     The total energy is F=E-TS. E is the sum of the following terms:
     one-electron contribution =    -155.23645304 Ry
     hartree contribution      =      79.28576855 Ry
     xc contribution           =      -9.31841769 Ry
     ewald contribution        =      60.71783306 Ry
     one-center paw contrib.   =     -12.33563515 Ry

     convergence has been achieved in   6 iterations

     Writing all to output data dir ./tmp/graphene.save/ :
     XML data file, charge density, pseudopotentials, collected wavefunctions

     init_run     :      1.66s CPU      1.61s WALL (       1 calls)
     electrons    :      6.71s CPU      4.19s WALL (       1 calls)

     Called by init_run:
     wfcinit      :      0.47s CPU      0.36s WALL (       1 calls)
     potinit      :      0.56s CPU      0.58s WALL (       1 calls)
     hinit0       :      0.57s CPU      0.58s WALL (       1 calls)

     Called by electrons:
     c_bands      :      3.88s CPU      2.10s WALL (       6 calls)
     sum_band     :      1.31s CPU      0.71s WALL (       6 calls)
     v_of_rho     :      0.80s CPU      0.66s WALL (       7 calls)
     newd         :      0.26s CPU      0.36s WALL (       7 calls)
     PAW_pot      :      0.46s CPU      0.46s WALL (       7 calls)
     mix_rho      :      0.10s CPU      0.06s WALL (       6 calls)

     Called by c_bands:
     init_us_2    :      0.08s CPU      0.06s WALL (     104 calls)
     cegterg      :      3.75s CPU      2.02s WALL (      48 calls)

     Called by *egterg:
     cdiaghg      :      0.09s CPU      0.04s WALL (     257 calls)
     h_psi        :      3.68s CPU      2.14s WALL (     265 calls)
     s_psi        :      0.05s CPU      0.03s WALL (     265 calls)
     g_psi        :      0.03s CPU      0.01s WALL (     209 calls)

     Called by h_psi:
     h_psi:calbec :      0.08s CPU      0.04s WALL (     265 calls)
     vloc_psi     :      3.48s CPU      2.02s WALL (     265 calls)
     add_vuspsi   :      0.10s CPU      0.07s WALL (     265 calls)

     General routines
     calbec       :      0.09s CPU      0.04s WALL (     313 calls)
     fft          :      0.75s CPU      0.67s WALL (      89 calls)
     ffts         :      0.41s CPU      0.41s WALL (      13 calls)
     fftw         :      2.87s CPU      1.76s WALL (    2862 calls)
     interpolate  :      0.42s CPU      0.42s WALL (       7 calls)


     PWSCF        :      8.56s CPU      5.96s WALL


   This run was terminated on:  17:12:33   9Sep2025            

=------------------------------------------------------------------------------=
   JOB DONE.
=------------------------------------------------------------------------------=
