
     Program PWSCF v.7.4.1 starts on  9Sep2025 at  8: 2:44 

     This program is part of the open-source Quantum ESPRESSO suite
     for quantum simulation of materials; please cite
         "P. Giannozzi et al., J. Phys.:Condens. Matter 21 395502 (2009);
         "P. Giannozzi et al., J. Phys.:Condens. Matter 29 465901 (2017);
         "P. Giannozzi et al., J. Chem. Phys. 152 154105 (2020);
          URL http://www.quantum-espresso.org", 
     in publications or presentations arising from this work. More details at
     http://www.quantum-espresso.org/quote

     Serial version
     9002 MiB available memory on the printing compute node when the environment starts

     Waiting for input...
     Reading input from standard input

     Current dimensions of program PWSCF are:
     Max number of different atomic species (ntypx) = 10
     Max number of k-points (npk) =  40000
     Max angular momentum in pseudopotentials (lmaxx) =  4
     file C.pbe-n-kjpaw_psl.1.0.0.UPF: wavefunction(s)  2S 2P renormalized


     G-vector sticks info
     --------------------
     sticks:   dense  smooth     PW     G-vecs:    dense   smooth      PW
     Sum         439     187     61                45879    11635    2313

     Using Slab Decomposition



     bravais-lattice index     =            4
     lattice parameter (alat)  =       4.6540  a.u.
     unit-cell volume          =     523.7946 (a.u.)^3
     number of atoms/cell      =            2
     number of atomic types    =            1
     number of electrons       =         8.00
     number of Kohn-Sham states=            8
     kinetic-energy cutoff     =      30.0000  Ry
     charge density cutoff     =     300.0000  Ry
     scf convergence threshold =      1.0E-08
     mixing beta               =       0.7000
     number of iterations used =            8  plain     mixing
     Exchange-correlation= SLA  PW   PBX  PBC
                           (   1   4   3   4   0   0   0)

     celldm(1)=   4.654000  celldm(2)=   0.000000  celldm(3)=   6.000000
     celldm(4)=   0.000000  celldm(5)=   0.000000  celldm(6)=   0.000000

     crystal axes: (cart. coord. in units of alat)
               a(1) = (   1.000000   0.000000   0.000000 )  
               a(2) = (  -0.500000   0.866025   0.000000 )  
               a(3) = (   0.000000   0.000000   6.000000 )  

     reciprocal axes: (cart. coord. in units 2 pi/alat)
               b(1) = (  1.000000  0.577350 -0.000000 )  
               b(2) = (  0.000000  1.154701  0.000000 )  
               b(3) = (  0.000000 -0.000000  0.166667 )  


     PseudoPot. # 1 for C  read from file:
     ../../../../pseudos/C.pbe-n-kjpaw_psl.1.0.0.UPF
     MD5 check sum: 5d2aebdfa2cae82b50a7e79e9516da0f
     Pseudo is Projector augmented-wave + core cor, Zval =  4.0
     Generated using "atomic" code by A. Dal Corso  v.5.1
     Shape of augmentation charge: PSQ
     Using radial grid of 1073 points,  4 beta functions with: 
                l(1) =   0
                l(2) =   0
                l(3) =   1
                l(4) =   1
     Q(r) pseudized with 0 coefficients 


     atomic species   valence    mass     pseudopotential
     C                 4.00    12.01070     C ( 1.00)

     24 Sym. Ops., with inversion, found (12 have fractional translation)



   Cartesian axes

     site n.     atom                  positions (alat units)
         1        C      tau(   1) = (   0.0000000   0.0000000   0.0000000  )
         2        C      tau(   2) = (   0.0000000   0.5773503   0.0000000  )

     number of k points=    12  Gaussian smearing, width (Ry)=  0.0100
                       cart. coord. in units 2pi/alat
        k(    1) = (   0.0000000   0.0000000   0.0000000), wk =   0.0246914
        k(    2) = (   0.0000000   0.1283001   0.0000000), wk =   0.1481481
        k(    3) = (   0.0000000   0.2566001   0.0000000), wk =   0.1481481
        k(    4) = (   0.0000000   0.3849002   0.0000000), wk =   0.1481481
        k(    5) = (   0.0000000   0.5132002   0.0000000), wk =   0.1481481
        k(    6) = (   0.1111111   0.1924501   0.0000000), wk =   0.1481481
        k(    7) = (   0.1111111   0.3207501   0.0000000), wk =   0.2962963
        k(    8) = (   0.1111111   0.4490502   0.0000000), wk =   0.2962963
        k(    9) = (   0.1111111   0.5773503   0.0000000), wk =   0.1481481
        k(   10) = (   0.2222222   0.3849002   0.0000000), wk =   0.1481481
        k(   11) = (   0.2222222   0.5132002   0.0000000), wk =   0.2962963
        k(   12) = (   0.3333333   0.5773503   0.0000000), wk =   0.0493827

     Dense  grid:    45879 G-vectors     FFT dimensions: (  27,  27, 160)

     Smooth grid:    11635 G-vectors     FFT dimensions: (  18,  18, 100)

     Estimated max dynamical RAM per process >      61.38 MB

     Check: negative core charge=   -0.000003

     Initial potential from superposition of free atoms

     starting charge       7.9999, renormalised to       8.0000

     negative rho (up, down):  4.529E-05 0.000E+00
     Starting wfcs are    8 randomized atomic wfcs

     total cpu time spent up to now is        1.1 secs

     Self-consistent Calculation

     iteration #  1     ecut=    30.00 Ry     beta= 0.70
     Davidson diagonalization with overlap
     ethr =  1.00E-02,  avg # of iterations =  6.2

     negative rho (up, down):  1.141E-05 0.000E+00

     total cpu time spent up to now is        1.7 secs

     total energy              =     -36.84131970 Ry
     estimated scf accuracy    <       0.19660633 Ry

     iteration #  2     ecut=    30.00 Ry     beta= 0.70
     Davidson diagonalization with overlap
     ethr =  2.46E-03,  avg # of iterations =  3.1

     negative rho (up, down):  1.189E-05 0.000E+00

     total cpu time spent up to now is        2.2 secs

     total energy              =     -36.87064011 Ry
     estimated scf accuracy    <       0.00235897 Ry

     iteration #  3     ecut=    30.00 Ry     beta= 0.70
     Davidson diagonalization with overlap
     ethr =  2.95E-05,  avg # of iterations =  9.8

     negative rho (up, down):  4.989E-05 0.000E+00

     total cpu time spent up to now is        2.8 secs

     total energy              =     -36.87084660 Ry
     estimated scf accuracy    <       0.00016513 Ry

     iteration #  4     ecut=    30.00 Ry     beta= 0.70
     Davidson diagonalization with overlap
     ethr =  2.06E-06,  avg # of iterations =  2.8

     negative rho (up, down):  1.890E-05 0.000E+00

     total cpu time spent up to now is        3.2 secs

     total energy              =     -36.87085456 Ry
     estimated scf accuracy    <       0.00000066 Ry

     iteration #  5     ecut=    30.00 Ry     beta= 0.70
     Davidson diagonalization with overlap
     ethr =  8.19E-09,  avg # of iterations =  3.1

     negative rho (up, down):  1.337E-05 0.000E+00

     total cpu time spent up to now is        3.6 secs

     total energy              =     -36.87085522 Ry
     estimated scf accuracy    <       0.00000003 Ry

     iteration #  6     ecut=    30.00 Ry     beta= 0.70
     Davidson diagonalization with overlap
     ethr =  3.21E-10,  avg # of iterations =  2.0

     negative rho (up, down):  1.273E-05 0.000E+00

     total cpu time spent up to now is        4.1 secs

     End of self-consistent calculation

          k = 0.0000 0.0000 0.0000 (  1435 PWs)   bands (ev):

   -21.2526  -9.3143  -4.6907  -4.6907   1.4777   2.3313   2.6171   4.6487

          k = 0.0000 0.1283 0.0000 (  1409 PWs)   bands (ev):

   -20.9601  -8.9625  -5.8149  -5.2643   1.8768   2.7331   3.0204   5.0459

          k = 0.0000 0.2566 0.0000 (  1445 PWs)   bands (ev):

   -20.0892  -8.3888  -7.9325  -6.4322   3.0726   3.9312   4.2297   6.1644

          k = 0.0000 0.3849 0.0000 (  1461 PWs)   bands (ev):

   -18.6609 -11.3335  -7.4597  -6.3025   3.2821   5.0524   5.9547   6.0536

          k = 0.0000 0.5132 0.0000 (  1459 PWs)   bands (ev):

   -16.7516 -14.0852  -8.0273  -4.4501   0.5725   5.7828   7.8267   8.7144

          k = 0.1111 0.1925 0.0000 (  1426 PWs)   bands (ev):

   -20.3785  -8.2709  -7.3888  -6.4185   2.6748   3.5346   3.8273   5.8363

          k = 0.1111 0.3208 0.0000 (  1455 PWs)   bands (ev):

   -19.2288  -9.8532  -7.8154  -6.9314   4.2669   4.5387   5.1483   5.4400

          k = 0.1111 0.4491 0.0000 (  1465 PWs)   bands (ev):

   -17.5490 -12.6229  -8.7023  -5.0979   1.6853   6.6248   7.1558   7.4996

          k = 0.1111 0.5774 0.0000 (  1478 PWs)   bands (ev):

   -15.8042 -14.7709  -9.0045  -3.7572  -0.0493   6.9888   9.6617   9.8154

          k = 0.2222 0.3849 0.0000 (  1456 PWs)   bands (ev):

   -17.8248 -11.3759  -9.8357  -5.3446   2.3185   6.2450   7.0608   7.4535

          k = 0.2222 0.5132 0.0000 (  1465 PWs)   bands (ev):

   -15.9705 -13.4956 -10.8421  -3.4607   0.0692   8.9454   9.1945   9.8704

          k = 0.3333 0.5774 0.0000 (  1434 PWs)   bands (ev):

   -14.3047 -14.3047 -12.2558  -1.6475  -1.6475   8.9504  11.2432  11.2433

     the Fermi energy is    -1.6475 ev

!    total energy              =     -36.87085523 Ry
     total all-electron energy =      -152.399051 Ry
     estimated scf accuracy    <          1.7E-09 Ry
     smearing contrib. (-TS)   =      -0.00027861 Ry
     internal energy E=F+TS    =     -36.87057661 Ry

     The total energy is F=E-TS. E is the sum of the following terms:
     one-electron contribution =    -154.17490340 Ry
     hartree contribution      =      78.72019332 Ry
     xc contribution           =      -9.27640230 Ry
     ewald contribution        =      60.19597803 Ry
     one-center paw contrib.   =     -12.33544226 Ry

     convergence has been achieved in   6 iterations

     Writing all to output data dir ./tmp/graphene.save/ :
     XML data file, charge density, pseudopotentials, collected wavefunctions

     init_run     :      1.11s CPU      1.03s WALL (       1 calls)
     electrons    :      5.17s CPU      3.00s WALL (       1 calls)

     Called by init_run:
     wfcinit      :      0.32s CPU      0.22s WALL (       1 calls)
     potinit      :      0.32s CPU      0.34s WALL (       1 calls)
     hinit0       :      0.43s CPU      0.43s WALL (       1 calls)

     Called by electrons:
     c_bands      :      3.03s CPU      1.66s WALL (       6 calls)
     sum_band     :      0.85s CPU      0.43s WALL (       6 calls)
     v_of_rho     :      0.66s CPU      0.40s WALL (       7 calls)
     newd         :      0.13s CPU      0.13s WALL (       7 calls)
     PAW_pot      :      0.52s CPU      0.45s WALL (       7 calls)
     mix_rho      :      0.05s CPU      0.03s WALL (       6 calls)

     Called by c_bands:
     init_us_2    :      0.10s CPU      0.05s WALL (     156 calls)
     cegterg      :      2.91s CPU      1.59s WALL (      72 calls)

     Called by *egterg:
     cdiaghg      :      0.10s CPU      0.05s WALL (     396 calls)
     h_psi        :      2.74s CPU      1.54s WALL (     408 calls)
     s_psi        :      0.06s CPU      0.05s WALL (     408 calls)
     g_psi        :      0.02s CPU      0.01s WALL (     324 calls)

     Called by h_psi:
     h_psi:calbec :      0.05s CPU      0.03s WALL (     408 calls)
     vloc_psi     :      2.56s CPU      1.43s WALL (     408 calls)
     add_vuspsi   :      0.11s CPU      0.08s WALL (     408 calls)

     General routines
     calbec       :      0.07s CPU      0.03s WALL (     480 calls)
     fft          :      0.59s CPU      0.50s WALL (      89 calls)
     ffts         :      0.23s CPU      0.23s WALL (      13 calls)
     fftw         :      2.31s CPU      1.32s WALL (    4238 calls)
     interpolate  :      0.23s CPU      0.24s WALL (       7 calls)


     PWSCF        :      6.44s CPU      4.13s WALL


   This run was terminated on:   8: 2:48   9Sep2025            

=------------------------------------------------------------------------------=
   JOB DONE.
=------------------------------------------------------------------------------=
