
     Program PWSCF v.7.4.1 starts on  9Sep2025 at 17:11:30 

     This program is part of the open-source Quantum ESPRESSO suite
     for quantum simulation of materials; please cite
         "P. Giannozzi et al., J. Phys.:Condens. Matter 21 395502 (2009);
         "P. Giannozzi et al., J. Phys.:Condens. Matter 29 465901 (2017);
         "P. Giannozzi et al., J. Chem. Phys. 152 154105 (2020);
          URL http://www.quantum-espresso.org", 
     in publications or presentations arising from this work. More details at
     http://www.quantum-espresso.org/quote

     Serial version
     22001 MiB available memory on the printing compute node when the environment starts

     Waiting for input...
     Reading input from standard input

     Current dimensions of program PWSCF are:
     Max number of different atomic species (ntypx) = 10
     Max number of k-points (npk) =  40000
     Max angular momentum in pseudopotentials (lmaxx) =  4
     file C.pbe-n-kjpaw_psl.1.0.0.UPF: wavefunction(s)  2S 2P renormalized


     G-vector sticks info
     --------------------
     sticks:   dense  smooth     PW     G-vecs:    dense   smooth      PW
     Sum         661     253     85                82267    20639    3847

     Using Slab Decomposition



     bravais-lattice index     =            4
     lattice parameter (alat)  =       4.6140  a.u.
     unit-cell volume          =     510.4047 (a.u.)^3
     number of atoms/cell      =            2
     number of atomic types    =            1
     number of electrons       =         8.00
     number of Kohn-Sham states=            8
     kinetic-energy cutoff     =      45.0000  Ry
     charge density cutoff     =     450.0000  Ry
     scf convergence threshold =      1.0E-08
     mixing beta               =       0.7000
     number of iterations used =            8  plain     mixing
     Exchange-correlation= SLA  PW   PBX  PBC
                           (   1   4   3   4   0   0   0)

     celldm(1)=   4.614000  celldm(2)=   0.000000  celldm(3)=   6.000000
     celldm(4)=   0.000000  celldm(5)=   0.000000  celldm(6)=   0.000000

     crystal axes: (cart. coord. in units of alat)
               a(1) = (   1.000000   0.000000   0.000000 )  
               a(2) = (  -0.500000   0.866025   0.000000 )  
               a(3) = (   0.000000   0.000000   6.000000 )  

     reciprocal axes: (cart. coord. in units 2 pi/alat)
               b(1) = (  1.000000  0.577350 -0.000000 )  
               b(2) = (  0.000000  1.154701  0.000000 )  
               b(3) = (  0.000000 -0.000000  0.166667 )  


     PseudoPot. # 1 for C  read from file:
     ../../../../../pseudos/C.pbe-n-kjpaw_psl.1.0.0.UPF
     MD5 check sum: 5d2aebdfa2cae82b50a7e79e9516da0f
     Pseudo is Projector augmented-wave + core cor, Zval =  4.0
     Generated using "atomic" code by A. Dal Corso  v.5.1
     Shape of augmentation charge: PSQ
     Using radial grid of 1073 points,  4 beta functions with: 
                l(1) =   0
                l(2) =   0
                l(3) =   1
                l(4) =   1
     Q(r) pseudized with 0 coefficients 


     atomic species   valence    mass     pseudopotential
     C                 4.00    12.01070     C ( 1.00)

     24 Sym. Ops., with inversion, found (12 have fractional translation)



   Cartesian axes

     site n.     atom                  positions (alat units)
         1        C      tau(   1) = (   0.0000000   0.0000000   0.0000000  )
         2        C      tau(   2) = (   0.0000000   0.5773503   0.0000000  )

     number of k points=     3  Gaussian smearing, width (Ry)=  0.0100
                       cart. coord. in units 2pi/alat
        k(    1) = (   0.0000000   0.0000000   0.0000000), wk =   0.2222222
        k(    2) = (   0.0000000   0.3849002   0.0000000), wk =   1.3333333
        k(    3) = (   0.3333333   0.5773503   0.0000000), wk =   0.4444444

     Dense  grid:    82267 G-vectors     FFT dimensions: (  36,  36, 192)

     Smooth grid:    20639 G-vectors     FFT dimensions: (  24,  24, 120)

     Estimated max dynamical RAM per process >     109.70 MB

     Initial potential from superposition of free atoms

     starting charge       7.9999, renormalised to       8.0000

     negative rho (up, down):  9.733E-06 0.000E+00
     Starting wfcs are    8 randomized atomic wfcs

     total cpu time spent up to now is        1.6 secs

     Self-consistent Calculation

     iteration #  1     ecut=    45.00 Ry     beta= 0.70
     Davidson diagonalization with overlap
     ethr =  1.00E-02,  avg # of iterations =  6.3

     negative rho (up, down):  2.328E-05 0.000E+00

     total cpu time spent up to now is        2.1 secs

     total energy              =     -36.81302201 Ry
     estimated scf accuracy    <       0.21960650 Ry

     iteration #  2     ecut=    45.00 Ry     beta= 0.70
     Davidson diagonalization with overlap
     ethr =  2.75E-03,  avg # of iterations =  2.3

     negative rho (up, down):  3.549E-05 0.000E+00

     total cpu time spent up to now is        2.5 secs

     total energy              =     -36.84542318 Ry
     estimated scf accuracy    <       0.00239055 Ry

     iteration #  3     ecut=    45.00 Ry     beta= 0.70
     Davidson diagonalization with overlap
     ethr =  2.99E-05,  avg # of iterations = 10.0

     negative rho (up, down):  4.318E-05 0.000E+00

     total cpu time spent up to now is        3.0 secs

     total energy              =     -36.84562038 Ry
     estimated scf accuracy    <       0.00018691 Ry

     iteration #  4     ecut=    45.00 Ry     beta= 0.70
     Davidson diagonalization with overlap
     ethr =  2.34E-06,  avg # of iterations =  2.7

     negative rho (up, down):  4.397E-05 0.000E+00

     total cpu time spent up to now is        3.5 secs

     total energy              =     -36.84563310 Ry
     estimated scf accuracy    <       0.00000147 Ry

     iteration #  5     ecut=    45.00 Ry     beta= 0.70
     Davidson diagonalization with overlap
     ethr =  1.84E-08,  avg # of iterations =  2.7

     negative rho (up, down):  4.418E-05 0.000E+00

     total cpu time spent up to now is        3.9 secs

     total energy              =     -36.84563433 Ry
     estimated scf accuracy    <       0.00000003 Ry

     iteration #  6     ecut=    45.00 Ry     beta= 0.70
     Davidson diagonalization with overlap
     ethr =  3.93E-10,  avg # of iterations =  2.3

     negative rho (up, down):  4.425E-05 0.000E+00

     total cpu time spent up to now is        4.3 secs

     End of self-consistent calculation

          k = 0.0000 0.0000 0.0000 (  2579 PWs)   bands (ev):

   -21.2768  -9.3477  -4.5318  -4.5318   1.5873   2.4982   2.9259   4.9426

          k = 0.0000 0.3849 0.0000 (  2604 PWs)   bands (ev):

   -18.6450 -11.2330  -7.3604  -6.2727   3.5165   5.2127   6.1803   6.4605

          k = 0.3333 0.5774 0.0000 (  2631 PWs)   bands (ev):

   -14.1988 -14.1988 -12.2967  -1.5130  -1.5130   9.1080  11.5507  11.5509

     the Fermi energy is    -1.5130 ev

!    total energy              =     -36.84563433 Ry
     total all-electron energy =      -152.373830 Ry
     estimated scf accuracy    <          5.1E-10 Ry
     smearing contrib. (-TS)   =      -0.00250751 Ry
     internal energy E=F+TS    =     -36.84312682 Ry

     The total energy is F=E-TS. E is the sum of the following terms:
     one-electron contribution =    -155.21047637 Ry
     hartree contribution      =      79.30721161 Ry
     xc contribution           =      -9.32551469 Ry
     ewald contribution        =      60.71783306 Ry
     one-center paw contrib.   =     -12.33218044 Ry

     convergence has been achieved in   6 iterations

     Writing all to output data dir ./tmp/graphene.save/ :
     XML data file, charge density, pseudopotentials, collected wavefunctions

     init_run     :      1.50s CPU      1.52s WALL (       1 calls)
     electrons    :      3.94s CPU      2.64s WALL (       1 calls)

     Called by init_run:
     wfcinit      :      0.31s CPU      0.28s WALL (       1 calls)
     potinit      :      0.55s CPU      0.57s WALL (       1 calls)
     hinit0       :      0.58s CPU      0.58s WALL (       1 calls)

     Called by electrons:
     c_bands      :      1.40s CPU      0.75s WALL (       6 calls)
     sum_band     :      1.05s CPU      0.55s WALL (       6 calls)
     v_of_rho     :      0.79s CPU      0.63s WALL (       7 calls)
     newd         :      0.25s CPU      0.36s WALL (       7 calls)
     PAW_pot      :      0.46s CPU      0.46s WALL (       7 calls)
     mix_rho      :      0.10s CPU      0.05s WALL (       6 calls)

     Called by c_bands:
     init_us_2    :      0.03s CPU      0.02s WALL (      39 calls)
     cegterg      :      1.36s CPU      0.73s WALL (      18 calls)

     Called by *egterg:
     cdiaghg      :      0.03s CPU      0.01s WALL (      97 calls)
     h_psi        :      1.49s CPU      0.92s WALL (     100 calls)
     s_psi        :      0.02s CPU      0.01s WALL (     100 calls)
     g_psi        :      0.01s CPU      0.00s WALL (      79 calls)

     Called by h_psi:
     h_psi:calbec :      0.03s CPU      0.01s WALL (     100 calls)
     vloc_psi     :      1.42s CPU      0.88s WALL (     100 calls)
     add_vuspsi   :      0.04s CPU      0.03s WALL (     100 calls)

     General routines
     calbec       :      0.03s CPU      0.02s WALL (     118 calls)
     fft          :      0.75s CPU      0.66s WALL (      89 calls)
     ffts         :      0.41s CPU      0.40s WALL (      13 calls)
     fftw         :      1.20s CPU      0.80s WALL (    1062 calls)
     interpolate  :      0.42s CPU      0.42s WALL (       7 calls)


     PWSCF        :      5.66s CPU      4.30s WALL


   This run was terminated on:  17:11:34   9Sep2025            

=------------------------------------------------------------------------------=
   JOB DONE.
=------------------------------------------------------------------------------=
