
     Program PWSCF v.7.4.1 starts on  9Sep2025 at 17:13:31 

     This program is part of the open-source Quantum ESPRESSO suite
     for quantum simulation of materials; please cite
         "P. Giannozzi et al., J. Phys.:Condens. Matter 21 395502 (2009);
         "P. Giannozzi et al., J. Phys.:Condens. Matter 29 465901 (2017);
         "P. Giannozzi et al., J. Chem. Phys. 152 154105 (2020);
          URL http://www.quantum-espresso.org", 
     in publications or presentations arising from this work. More details at
     http://www.quantum-espresso.org/quote

     Serial version
     21817 MiB available memory on the printing compute node when the environment starts

     Waiting for input...
     Reading input from standard input

     Current dimensions of program PWSCF are:
     Max number of different atomic species (ntypx) = 10
     Max number of k-points (npk) =  40000
     Max angular momentum in pseudopotentials (lmaxx) =  4
     file C.pbe-n-kjpaw_psl.1.0.0.UPF: wavefunction(s)  2S 2P renormalized


     G-vector sticks info
     --------------------
     sticks:   dense  smooth     PW     G-vecs:    dense   smooth      PW
     Sum         661     253     85                82267    20639    3847

     Using Slab Decomposition



     bravais-lattice index     =            4
     lattice parameter (alat)  =       4.6140  a.u.
     unit-cell volume          =     510.4047 (a.u.)^3
     number of atoms/cell      =            2
     number of atomic types    =            1
     number of electrons       =         8.00
     number of Kohn-Sham states=            8
     kinetic-energy cutoff     =      45.0000  Ry
     charge density cutoff     =     450.0000  Ry
     scf convergence threshold =      1.0E-08
     mixing beta               =       0.7000
     number of iterations used =            8  plain     mixing
     Exchange-correlation= SLA  PW   PBX  PBC
                           (   1   4   3   4   0   0   0)

     celldm(1)=   4.614000  celldm(2)=   0.000000  celldm(3)=   6.000000
     celldm(4)=   0.000000  celldm(5)=   0.000000  celldm(6)=   0.000000

     crystal axes: (cart. coord. in units of alat)
               a(1) = (   1.000000   0.000000   0.000000 )  
               a(2) = (  -0.500000   0.866025   0.000000 )  
               a(3) = (   0.000000   0.000000   6.000000 )  

     reciprocal axes: (cart. coord. in units 2 pi/alat)
               b(1) = (  1.000000  0.577350 -0.000000 )  
               b(2) = (  0.000000  1.154701  0.000000 )  
               b(3) = (  0.000000 -0.000000  0.166667 )  


     PseudoPot. # 1 for C  read from file:
     ../../../../../pseudos/C.pbe-n-kjpaw_psl.1.0.0.UPF
     MD5 check sum: 5d2aebdfa2cae82b50a7e79e9516da0f
     Pseudo is Projector augmented-wave + core cor, Zval =  4.0
     Generated using "atomic" code by A. Dal Corso  v.5.1
     Shape of augmentation charge: PSQ
     Using radial grid of 1073 points,  4 beta functions with: 
                l(1) =   0
                l(2) =   0
                l(3) =   1
                l(4) =   1
     Q(r) pseudized with 0 coefficients 


     atomic species   valence    mass     pseudopotential
     C                 4.00    12.01070     C ( 1.00)

     24 Sym. Ops., with inversion, found (12 have fractional translation)



   Cartesian axes

     site n.     atom                  positions (alat units)
         1        C      tau(   1) = (   0.0000000   0.0000000   0.0000000  )
         2        C      tau(   2) = (   0.0000000   0.5773503   0.0000000  )

     number of k points=    19  Gaussian smearing, width (Ry)=  0.0100
                       cart. coord. in units 2pi/alat
        k(    1) = (   0.0000000   0.0000000   0.0000000), wk =   0.0138889
        k(    2) = (   0.0000000   0.0962250   0.0000000), wk =   0.0833333
        k(    3) = (   0.0000000   0.1924501   0.0000000), wk =   0.0833333
        k(    4) = (   0.0000000   0.2886751   0.0000000), wk =   0.0833333
        k(    5) = (   0.0000000   0.3849002   0.0000000), wk =   0.0833333
        k(    6) = (   0.0000000   0.4811252   0.0000000), wk =   0.0833333
        k(    7) = (   0.0000000  -0.5773503   0.0000000), wk =   0.0416667
        k(    8) = (   0.0833333   0.1443376   0.0000000), wk =   0.0833333
        k(    9) = (   0.0833333   0.2405626   0.0000000), wk =   0.1666667
        k(   10) = (   0.0833333   0.3367877   0.0000000), wk =   0.1666667
        k(   11) = (   0.0833333   0.4330127   0.0000000), wk =   0.1666667
        k(   12) = (   0.0833333   0.5292377   0.0000000), wk =   0.1666667
        k(   13) = (   0.1666667   0.2886751   0.0000000), wk =   0.0833333
        k(   14) = (   0.1666667   0.3849002   0.0000000), wk =   0.1666667
        k(   15) = (   0.1666667   0.4811252   0.0000000), wk =   0.1666667
        k(   16) = (   0.1666667   0.5773503   0.0000000), wk =   0.0833333
        k(   17) = (   0.2500000   0.4330127   0.0000000), wk =   0.0833333
        k(   18) = (   0.2500000   0.5292377   0.0000000), wk =   0.1666667
        k(   19) = (   0.3333333   0.5773503   0.0000000), wk =   0.0277778

     Dense  grid:    82267 G-vectors     FFT dimensions: (  36,  36, 192)

     Smooth grid:    20639 G-vectors     FFT dimensions: (  24,  24, 120)

     Estimated max dynamical RAM per process >     114.78 MB

     Initial potential from superposition of free atoms

     starting charge       7.9999, renormalised to       8.0000

     negative rho (up, down):  9.733E-06 0.000E+00
     Starting wfcs are    8 randomized atomic wfcs

     total cpu time spent up to now is        1.9 secs

     Self-consistent Calculation

     iteration #  1     ecut=    45.00 Ry     beta= 0.70
     Davidson diagonalization with overlap
     ethr =  1.00E-02,  avg # of iterations =  5.6

     negative rho (up, down):  2.391E-05 0.000E+00

     total cpu time spent up to now is        3.4 secs

     total energy              =     -36.85401319 Ry
     estimated scf accuracy    <       0.21251589 Ry

     iteration #  2     ecut=    45.00 Ry     beta= 0.70
     Davidson diagonalization with overlap
     ethr =  2.66E-03,  avg # of iterations =  2.7

     negative rho (up, down):  3.505E-05 0.000E+00

     total cpu time spent up to now is        4.5 secs

     total energy              =     -36.88527669 Ry
     estimated scf accuracy    <       0.00221728 Ry

     iteration #  3     ecut=    45.00 Ry     beta= 0.70
     Davidson diagonalization with overlap
     ethr =  2.77E-05,  avg # of iterations =  8.8

     negative rho (up, down):  4.281E-05 0.000E+00

     total cpu time spent up to now is        6.0 secs

     total energy              =     -36.88552987 Ry
     estimated scf accuracy    <       0.00016470 Ry

     iteration #  4     ecut=    45.00 Ry     beta= 0.70
     Davidson diagonalization with overlap
     ethr =  2.06E-06,  avg # of iterations =  4.1

     negative rho (up, down):  4.373E-05 0.000E+00

     total cpu time spent up to now is        7.1 secs

     total energy              =     -36.88553991 Ry
     estimated scf accuracy    <       0.00000131 Ry

     iteration #  5     ecut=    45.00 Ry     beta= 0.70
     Davidson diagonalization with overlap
     ethr =  1.64E-08,  avg # of iterations =  3.2

     negative rho (up, down):  4.386E-05 0.000E+00

     total cpu time spent up to now is        8.2 secs

     total energy              =     -36.88554077 Ry
     estimated scf accuracy    <       0.00000003 Ry

     iteration #  6     ecut=    45.00 Ry     beta= 0.70
     Davidson diagonalization with overlap
     ethr =  3.26E-10,  avg # of iterations =  2.2

     negative rho (up, down):  4.391E-05 0.000E+00

     total cpu time spent up to now is        9.1 secs

     End of self-consistent calculation

          k = 0.0000 0.0000 0.0000 (  2579 PWs)   bands (ev):

   -21.3083  -9.3640  -4.5801  -4.5801   1.5929   2.5022   2.9279   4.9442

          k = 0.0000 0.0962 0.0000 (  2557 PWs)   bands (ev):

   -21.1414  -9.1632  -5.2385  -4.9294   1.8204   2.7317   3.1591   5.1719

          k = 0.0000 0.1925 0.0000 (  2579 PWs)   bands (ev):

   -20.6426  -8.5662  -6.8992  -5.7461   2.5030   3.4186   3.8526   5.8518

          k = 0.0000 0.2887 0.0000 (  2593 PWs)   bands (ev):

   -19.8177  -9.0310  -7.5922  -6.6511   3.6386   4.5462   5.0074   5.9149

          k = 0.0000 0.3849 0.0000 (  2604 PWs)   bands (ev):

   -18.6784 -11.2721  -7.4046  -6.2917   3.4913   5.2177   6.1837   6.4372

          k = 0.0000 0.4811 0.0000 (  2614 PWs)   bands (ev):

   -17.2533 -13.4133  -7.8902  -4.8301   1.2899   6.2164   7.2720   8.2106

          k = 0.0000-0.5774 0.0000 (  2576 PWs)   bands (ev):

   -15.9313 -14.9819  -8.0567  -3.9589   0.1558   6.1445   9.6267   9.7715

          k = 0.0833 0.1443 0.0000 (  2565 PWs)   bands (ev):

   -20.8086  -8.7642  -6.2840  -5.6280   2.2757   3.1900   3.6215   5.6261

          k = 0.0833 0.2406 0.0000 (  2583 PWs)   bands (ev):

   -20.1468  -8.0183  -7.9775  -6.6537   3.1857   4.1027   4.5465   6.5132

          k = 0.0833 0.3368 0.0000 (  2593 PWs)   bands (ev):

   -19.1646 -10.1268  -7.5615  -6.8337   4.5358   4.5463   5.4997   5.9318

          k = 0.0833 0.4330 0.0000 (  2605 PWs)   bands (ev):

   -17.8800 -12.2889  -8.2112  -5.4180   2.2707   6.3390   7.0694   7.2913

          k = 0.0833 0.5292 0.0000 (  2613 PWs)   bands (ev):

   -16.3613 -14.2776  -8.5473  -4.0705   0.4455   6.8904   8.5957   9.4921

          k = 0.1667 0.2887 0.0000 (  2601 PWs)   bands (ev):

   -19.3278  -9.3593  -8.0546  -7.0171   4.3216   5.0180   5.2367   5.7031

          k = 0.1667 0.3849 0.0000 (  2598 PWs)   bands (ev):

   -18.1993 -11.1175  -9.1316  -5.7320   3.0108   5.9030   6.8018   7.3192

          k = 0.1667 0.4811 0.0000 (  2623 PWs)   bands (ev):

   -16.7944 -13.0710  -9.7143  -4.2664   1.0398   7.9073   8.7182   8.8196

          k = 0.1667 0.5774 0.0000 (  2619 PWs)   bands (ev):

   -15.5063 -14.5645  -9.9014  -3.3462  -0.0631   8.7240  10.1625  10.2079

          k = 0.2500 0.4330 0.0000 (  2617 PWs)   bands (ev):

   -16.9467 -12.1518 -10.6618  -4.3538   1.3540   7.6898   8.4205   9.1615

          k = 0.2500 0.5292 0.0000 (  2647 PWs)   bands (ev):

   -15.4879 -13.6124 -11.3786  -2.9292  -0.2089   9.3982   9.8393  10.9983

          k = 0.3333 0.5774 0.0000 (  2631 PWs)   bands (ev):

   -14.2369 -14.2369 -12.3313  -1.5375  -1.5375   9.1229  11.5394  11.5397

     the Fermi energy is    -1.5375 ev

!    total energy              =     -36.88554077 Ry
     total all-electron energy =      -152.413736 Ry
     estimated scf accuracy    <          5.6E-10 Ry
     smearing contrib. (-TS)   =      -0.00015672 Ry
     internal energy E=F+TS    =     -36.88538405 Ry

     The total energy is F=E-TS. E is the sum of the following terms:
     one-electron contribution =    -155.23531618 Ry
     hartree contribution      =      79.28623566 Ry
     xc contribution           =      -9.31847884 Ry
     ewald contribution        =      60.71783306 Ry
     one-center paw contrib.   =     -12.33565776 Ry

     convergence has been achieved in   6 iterations

     Writing all to output data dir ./tmp/graphene.save/ :
     XML data file, charge density, pseudopotentials, collected wavefunctions

     init_run     :      2.00s CPU      1.79s WALL (       1 calls)
     electrons    :     12.49s CPU      7.22s WALL (       1 calls)

     Called by init_run:
     wfcinit      :      0.79s CPU      0.54s WALL (       1 calls)
     potinit      :      0.55s CPU      0.57s WALL (       1 calls)
     hinit0       :      0.58s CPU      0.59s WALL (       1 calls)

     Called by electrons:
     c_bands      :      9.01s CPU      4.76s WALL (       6 calls)
     sum_band     :      1.98s CPU      1.09s WALL (       6 calls)
     v_of_rho     :      0.81s CPU      0.65s WALL (       7 calls)
     newd         :      0.26s CPU      0.35s WALL (       7 calls)
     PAW_pot      :      0.47s CPU      0.47s WALL (       7 calls)
     mix_rho      :      0.09s CPU      0.05s WALL (       6 calls)

     Called by c_bands:
     init_us_2    :      0.28s CPU      0.14s WALL (     247 calls)
     cegterg      :      8.63s CPU      4.58s WALL (     114 calls)

     Called by *egterg:
     cdiaghg      :      0.20s CPU      0.08s WALL (     620 calls)
     h_psi        :      8.27s CPU      4.60s WALL (     639 calls)
     s_psi        :      0.09s CPU      0.05s WALL (     639 calls)
     g_psi        :      0.07s CPU      0.03s WALL (     506 calls)

     Called by h_psi:
     h_psi:calbec :      0.17s CPU      0.09s WALL (     639 calls)
     vloc_psi     :      7.87s CPU      4.39s WALL (     639 calls)
     add_vuspsi   :      0.18s CPU      0.11s WALL (     639 calls)

     General routines
     calbec       :      0.21s CPU      0.11s WALL (     753 calls)
     fft          :      0.75s CPU      0.67s WALL (      89 calls)
     ffts         :      0.41s CPU      0.40s WALL (      13 calls)
     fftw         :      6.59s CPU      3.85s WALL (    6784 calls)
     interpolate  :      0.42s CPU      0.42s WALL (       7 calls)


     PWSCF        :     14.71s CPU      9.16s WALL


   This run was terminated on:  17:13:40   9Sep2025            

=------------------------------------------------------------------------------=
   JOB DONE.
=------------------------------------------------------------------------------=
