
     Program PWSCF v.7.4.1 starts on  9Sep2025 at  8: 5: 4 

     This program is part of the open-source Quantum ESPRESSO suite
     for quantum simulation of materials; please cite
         "P. Giannozzi et al., J. Phys.:Condens. Matter 21 395502 (2009);
         "P. Giannozzi et al., J. Phys.:Condens. Matter 29 465901 (2017);
         "P. Giannozzi et al., J. Chem. Phys. 152 154105 (2020);
          URL http://www.quantum-espresso.org", 
     in publications or presentations arising from this work. More details at
     http://www.quantum-espresso.org/quote

     Serial version
     8784 MiB available memory on the printing compute node when the environment starts

     Waiting for input...
     Reading input from standard input

     Current dimensions of program PWSCF are:
     Max number of different atomic species (ntypx) = 10
     Max number of k-points (npk) =  40000
     Max angular momentum in pseudopotentials (lmaxx) =  4
     file C.pbe-n-kjpaw_psl.1.0.0.UPF: wavefunction(s)  2S 2P renormalized


     G-vector sticks info
     --------------------
     sticks:   dense  smooth     PW     G-vecs:    dense   smooth      PW
     Sum         745     301     91                99067    25121    4457

     Using Slab Decomposition



     bravais-lattice index     =            4
     lattice parameter (alat)  =       4.6540  a.u.
     unit-cell volume          =     523.7946 (a.u.)^3
     number of atoms/cell      =            2
     number of atomic types    =            1
     number of electrons       =         8.00
     number of Kohn-Sham states=            8
     kinetic-energy cutoff     =      50.0000  Ry
     charge density cutoff     =     500.0000  Ry
     scf convergence threshold =      1.0E-08
     mixing beta               =       0.7000
     number of iterations used =            8  plain     mixing
     Exchange-correlation= SLA  PW   PBX  PBC
                           (   1   4   3   4   0   0   0)

     celldm(1)=   4.654000  celldm(2)=   0.000000  celldm(3)=   6.000000
     celldm(4)=   0.000000  celldm(5)=   0.000000  celldm(6)=   0.000000

     crystal axes: (cart. coord. in units of alat)
               a(1) = (   1.000000   0.000000   0.000000 )  
               a(2) = (  -0.500000   0.866025   0.000000 )  
               a(3) = (   0.000000   0.000000   6.000000 )  

     reciprocal axes: (cart. coord. in units 2 pi/alat)
               b(1) = (  1.000000  0.577350 -0.000000 )  
               b(2) = (  0.000000  1.154701  0.000000 )  
               b(3) = (  0.000000 -0.000000  0.166667 )  


     PseudoPot. # 1 for C  read from file:
     ../../../../pseudos/C.pbe-n-kjpaw_psl.1.0.0.UPF
     MD5 check sum: 5d2aebdfa2cae82b50a7e79e9516da0f
     Pseudo is Projector augmented-wave + core cor, Zval =  4.0
     Generated using "atomic" code by A. Dal Corso  v.5.1
     Shape of augmentation charge: PSQ
     Using radial grid of 1073 points,  4 beta functions with: 
                l(1) =   0
                l(2) =   0
                l(3) =   1
                l(4) =   1
     Q(r) pseudized with 0 coefficients 


     atomic species   valence    mass     pseudopotential
     C                 4.00    12.01070     C ( 1.00)

     24 Sym. Ops., with inversion, found (12 have fractional translation)



   Cartesian axes

     site n.     atom                  positions (alat units)
         1        C      tau(   1) = (   0.0000000   0.0000000   0.0000000  )
         2        C      tau(   2) = (   0.0000000   0.5773503   0.0000000  )

     number of k points=    12  Gaussian smearing, width (Ry)=  0.0100
                       cart. coord. in units 2pi/alat
        k(    1) = (   0.0000000   0.0000000   0.0000000), wk =   0.0246914
        k(    2) = (   0.0000000   0.1283001   0.0000000), wk =   0.1481481
        k(    3) = (   0.0000000   0.2566001   0.0000000), wk =   0.1481481
        k(    4) = (   0.0000000   0.3849002   0.0000000), wk =   0.1481481
        k(    5) = (   0.0000000   0.5132002   0.0000000), wk =   0.1481481
        k(    6) = (   0.1111111   0.1924501   0.0000000), wk =   0.1481481
        k(    7) = (   0.1111111   0.3207501   0.0000000), wk =   0.2962963
        k(    8) = (   0.1111111   0.4490502   0.0000000), wk =   0.2962963
        k(    9) = (   0.1111111   0.5773503   0.0000000), wk =   0.1481481
        k(   10) = (   0.2222222   0.3849002   0.0000000), wk =   0.1481481
        k(   11) = (   0.2222222   0.5132002   0.0000000), wk =   0.2962963
        k(   12) = (   0.3333333   0.5773503   0.0000000), wk =   0.0493827

     Dense  grid:    99067 G-vectors     FFT dimensions: (  36,  36, 200)

     Smooth grid:    25121 G-vectors     FFT dimensions: (  24,  24, 125)

     Estimated max dynamical RAM per process >     132.69 MB

     Check: negative core charge=   -0.000001

     Initial potential from superposition of free atoms

     starting charge       7.9999, renormalised to       8.0000

     negative rho (up, down):  4.751E-05 0.000E+00
     Starting wfcs are    8 randomized atomic wfcs

     total cpu time spent up to now is        1.4 secs

     Self-consistent Calculation

     iteration #  1     ecut=    50.00 Ry     beta= 0.70
     Davidson diagonalization with overlap
     ethr =  1.00E-02,  avg # of iterations =  5.9

     negative rho (up, down):  5.826E-05 0.000E+00

     total cpu time spent up to now is        2.5 secs

     total energy              =     -36.85776556 Ry
     estimated scf accuracy    <       0.19679843 Ry

     iteration #  2     ecut=    50.00 Ry     beta= 0.70
     Davidson diagonalization with overlap
     ethr =  2.46E-03,  avg # of iterations =  2.8

     negative rho (up, down):  6.882E-05 0.000E+00

     total cpu time spent up to now is        3.3 secs

     total energy              =     -36.88590006 Ry
     estimated scf accuracy    <       0.00209736 Ry

     iteration #  3     ecut=    50.00 Ry     beta= 0.70
     Davidson diagonalization with overlap
     ethr =  2.62E-05,  avg # of iterations = 10.5

     negative rho (up, down):  7.701E-05 0.000E+00

     total cpu time spent up to now is        4.9 secs

     total energy              =     -36.88615567 Ry
     estimated scf accuracy    <       0.00015853 Ry

     iteration #  4     ecut=    50.00 Ry     beta= 0.70
     Davidson diagonalization with overlap
     ethr =  1.98E-06,  avg # of iterations =  4.0

     negative rho (up, down):  7.770E-05 0.000E+00

     total cpu time spent up to now is        5.8 secs

     total energy              =     -36.88616668 Ry
     estimated scf accuracy    <       0.00000154 Ry

     iteration #  5     ecut=    50.00 Ry     beta= 0.70
     Davidson diagonalization with overlap
     ethr =  1.92E-08,  avg # of iterations =  2.8

     negative rho (up, down):  7.778E-05 0.000E+00

     total cpu time spent up to now is        6.7 secs

     total energy              =     -36.88616756 Ry
     estimated scf accuracy    <       0.00000003 Ry

     iteration #  6     ecut=    50.00 Ry     beta= 0.70
     Davidson diagonalization with overlap
     ethr =  3.77E-10,  avg # of iterations =  2.7

     negative rho (up, down):  7.779E-05 0.000E+00

     total cpu time spent up to now is        7.7 secs

     End of self-consistent calculation

          k = 0.0000 0.0000 0.0000 (  3111 PWs)   bands (ev):

   -21.2251  -9.3130  -4.7170  -4.7170   1.5291   2.4117   2.7748   4.7705

          k = 0.0000 0.1283 0.0000 (  3135 PWs)   bands (ev):

   -20.9332  -8.9641  -5.8341  -5.2913   1.9272   2.8126   3.1786   5.1676

          k = 0.0000 0.2566 0.0000 (  3123 PWs)   bands (ev):

   -20.0633  -8.3874  -7.9353  -6.4496   3.1203   4.0081   4.3896   6.2382

          k = 0.0000 0.3849 0.0000 (  3139 PWs)   bands (ev):

   -18.6363 -11.3224  -7.4726  -6.3071   3.2615   5.0943   6.0288   6.0823

          k = 0.0000 0.5132 0.0000 (  3135 PWs)   bands (ev):

   -16.7286 -14.0710  -8.0376  -4.4597   0.5586   5.7958   7.8637   8.7783

          k = 0.1111 0.1925 0.0000 (  3125 PWs)   bands (ev):

   -20.3523  -8.2745  -7.3925  -6.4391   2.7235   3.6125   3.9865   5.9583

          k = 0.1111 0.3208 0.0000 (  3129 PWs)   bands (ev):

   -19.2037  -9.8461  -7.8258  -6.9363   4.3120   4.5155   5.2210   5.6012

          k = 0.1111 0.4491 0.0000 (  3138 PWs)   bands (ev):

   -17.5253 -12.6102  -8.7080  -5.1052   1.6673   6.6611   7.1675   7.5661

          k = 0.1111 0.5774 0.0000 (  3122 PWs)   bands (ev):

   -15.7803 -14.7567  -9.0084  -3.7661  -0.0604   6.9967   9.6873   9.8490

          k = 0.2222 0.3849 0.0000 (  3145 PWs)   bands (ev):

   -17.8011 -11.3637  -9.8435  -5.3514   2.2965   6.2852   7.1247   7.6180

          k = 0.2222 0.5132 0.0000 (  3121 PWs)   bands (ev):

   -15.9486 -13.4810 -10.8439  -3.4714   0.0528   8.9747   9.2133   9.8700

          k = 0.3333 0.5774 0.0000 (  3135 PWs)   bands (ev):

   -14.2864 -14.2864 -12.2649  -1.6635  -1.6635   8.9585  11.2388  11.2390

     the Fermi energy is    -1.6635 ev

!    total energy              =     -36.88616758 Ry
     total all-electron energy =      -152.414363 Ry
     estimated scf accuracy    <          2.0E-10 Ry
     smearing contrib. (-TS)   =      -0.00027861 Ry
     internal energy E=F+TS    =     -36.88588896 Ry

     The total energy is F=E-TS. E is the sum of the following terms:
     one-electron contribution =    -154.20763353 Ry
     hartree contribution      =      78.73923658 Ry
     xc contribution           =      -9.27950804 Ry
     ewald contribution        =      60.19597803 Ry
     one-center paw contrib.   =     -12.33396201 Ry

     convergence has been achieved in   6 iterations

     Writing all to output data dir ./tmp/graphene.save/ :
     XML data file, charge density, pseudopotentials, collected wavefunctions

     init_run     :      1.37s CPU      1.28s WALL (       1 calls)
     electrons    :     10.22s CPU      6.27s WALL (       1 calls)

     Called by init_run:
     wfcinit      :      0.42s CPU      0.28s WALL (       1 calls)
     potinit      :      0.34s CPU      0.37s WALL (       1 calls)
     hinit0       :      0.52s CPU      0.53s WALL (       1 calls)

     Called by electrons:
     c_bands      :      6.79s CPU      3.76s WALL (       6 calls)
     sum_band     :      1.84s CPU      1.00s WALL (       6 calls)
     v_of_rho     :      0.80s CPU      0.73s WALL (       7 calls)
     newd         :      0.34s CPU      0.43s WALL (       7 calls)
     PAW_pot      :      0.47s CPU      0.47s WALL (       7 calls)
     mix_rho      :      0.13s CPU      0.07s WALL (       6 calls)

     Called by c_bands:
     init_us_2    :      0.18s CPU      0.11s WALL (     156 calls)
     cegterg      :      6.54s CPU      3.63s WALL (      72 calls)

     Called by *egterg:
     cdiaghg      :      0.14s CPU      0.06s WALL (     416 calls)
     h_psi        :      5.99s CPU      3.43s WALL (     428 calls)
     s_psi        :      0.10s CPU      0.07s WALL (     428 calls)
     g_psi        :      0.05s CPU      0.02s WALL (     344 calls)

     Called by h_psi:
     h_psi:calbec :      0.16s CPU      0.09s WALL (     428 calls)
     vloc_psi     :      5.61s CPU      3.16s WALL (     428 calls)
     add_vuspsi   :      0.18s CPU      0.17s WALL (     428 calls)

     General routines
     calbec       :      0.19s CPU      0.10s WALL (     500 calls)
     fft          :      0.70s CPU      0.62s WALL (      89 calls)
     ffts         :      0.18s CPU      0.17s WALL (      13 calls)
     fftw         :      4.57s CPU      2.69s WALL (    4376 calls)
     interpolate  :      0.19s CPU      0.19s WALL (       7 calls)


     PWSCF        :     11.79s CPU      7.70s WALL


   This run was terminated on:   8: 5:12   9Sep2025            

=------------------------------------------------------------------------------=
   JOB DONE.
=------------------------------------------------------------------------------=
