
     Program PWSCF v.7.4.1 starts on  9Sep2025 at  8: 1:49 

     This program is part of the open-source Quantum ESPRESSO suite
     for quantum simulation of materials; please cite
         "P. Giannozzi et al., J. Phys.:Condens. Matter 21 395502 (2009);
         "P. Giannozzi et al., J. Phys.:Condens. Matter 29 465901 (2017);
         "P. Giannozzi et al., J. Chem. Phys. 152 154105 (2020);
          URL http://www.quantum-espresso.org", 
     in publications or presentations arising from this work. More details at
     http://www.quantum-espresso.org/quote

     Serial version
     8906 MiB available memory on the printing compute node when the environment starts

     Waiting for input...
     Reading input from standard input

     Current dimensions of program PWSCF are:
     Max number of different atomic species (ntypx) = 10
     Max number of k-points (npk) =  40000
     Max angular momentum in pseudopotentials (lmaxx) =  4
     file C.pbe-n-kjpaw_psl.1.0.0.UPF: wavefunction(s)  2S 2P renormalized


     G-vector sticks info
     --------------------
     sticks:   dense  smooth     PW     G-vecs:    dense   smooth      PW
     Sum         301     121     37                25121     6367    1307

     Using Slab Decomposition



     bravais-lattice index     =            4
     lattice parameter (alat)  =       4.6540  a.u.
     unit-cell volume          =     523.7946 (a.u.)^3
     number of atoms/cell      =            2
     number of atomic types    =            1
     number of electrons       =         8.00
     number of Kohn-Sham states=            8
     kinetic-energy cutoff     =      20.0000  Ry
     charge density cutoff     =     200.0000  Ry
     scf convergence threshold =      1.0E-08
     mixing beta               =       0.7000
     number of iterations used =            8  plain     mixing
     Exchange-correlation= SLA  PW   PBX  PBC
                           (   1   4   3   4   0   0   0)

     celldm(1)=   4.654000  celldm(2)=   0.000000  celldm(3)=   6.000000
     celldm(4)=   0.000000  celldm(5)=   0.000000  celldm(6)=   0.000000

     crystal axes: (cart. coord. in units of alat)
               a(1) = (   1.000000   0.000000   0.000000 )  
               a(2) = (  -0.500000   0.866025   0.000000 )  
               a(3) = (   0.000000   0.000000   6.000000 )  

     reciprocal axes: (cart. coord. in units 2 pi/alat)
               b(1) = (  1.000000  0.577350 -0.000000 )  
               b(2) = (  0.000000  1.154701  0.000000 )  
               b(3) = (  0.000000 -0.000000  0.166667 )  


     PseudoPot. # 1 for C  read from file:
     ../../../../pseudos/C.pbe-n-kjpaw_psl.1.0.0.UPF
     MD5 check sum: 5d2aebdfa2cae82b50a7e79e9516da0f
     Pseudo is Projector augmented-wave + core cor, Zval =  4.0
     Generated using "atomic" code by A. Dal Corso  v.5.1
     Shape of augmentation charge: PSQ
     Using radial grid of 1073 points,  4 beta functions with: 
                l(1) =   0
                l(2) =   0
                l(3) =   1
                l(4) =   1
     Q(r) pseudized with 0 coefficients 


     atomic species   valence    mass     pseudopotential
     C                 4.00    12.01070     C ( 1.00)

     24 Sym. Ops., with inversion, found (12 have fractional translation)



   Cartesian axes

     site n.     atom                  positions (alat units)
         1        C      tau(   1) = (   0.0000000   0.0000000   0.0000000  )
         2        C      tau(   2) = (   0.0000000   0.5773503   0.0000000  )

     number of k points=    12  Gaussian smearing, width (Ry)=  0.0100
                       cart. coord. in units 2pi/alat
        k(    1) = (   0.0000000   0.0000000   0.0000000), wk =   0.0246914
        k(    2) = (   0.0000000   0.1283001   0.0000000), wk =   0.1481481
        k(    3) = (   0.0000000   0.2566001   0.0000000), wk =   0.1481481
        k(    4) = (   0.0000000   0.3849002   0.0000000), wk =   0.1481481
        k(    5) = (   0.0000000   0.5132002   0.0000000), wk =   0.1481481
        k(    6) = (   0.1111111   0.1924501   0.0000000), wk =   0.1481481
        k(    7) = (   0.1111111   0.3207501   0.0000000), wk =   0.2962963
        k(    8) = (   0.1111111   0.4490502   0.0000000), wk =   0.2962963
        k(    9) = (   0.1111111   0.5773503   0.0000000), wk =   0.1481481
        k(   10) = (   0.2222222   0.3849002   0.0000000), wk =   0.1481481
        k(   11) = (   0.2222222   0.5132002   0.0000000), wk =   0.2962963
        k(   12) = (   0.3333333   0.5773503   0.0000000), wk =   0.0493827

     Dense  grid:    25121 G-vectors     FFT dimensions: (  24,  24, 125)

     Smooth grid:     6367 G-vectors     FFT dimensions: (  15,  15,  80)

     Estimated max dynamical RAM per process >      34.27 MB

     Check: negative core charge=   -0.000025

     Initial potential from superposition of free atoms

     starting charge       7.9999, renormalised to       8.0000

     negative rho (up, down):  4.423E-05 0.000E+00
     Starting wfcs are    8 randomized atomic wfcs

     total cpu time spent up to now is        0.8 secs

     Self-consistent Calculation

     iteration #  1     ecut=    20.00 Ry     beta= 0.70
     Davidson diagonalization with overlap
     ethr =  1.00E-02,  avg # of iterations =  5.3

     negative rho (up, down):  4.181E-05 0.000E+00

     total cpu time spent up to now is        1.1 secs

     total energy              =     -36.72154158 Ry
     estimated scf accuracy    <       0.16985121 Ry

     iteration #  2     ecut=    20.00 Ry     beta= 0.70
     Davidson diagonalization with overlap
     ethr =  2.12E-03,  avg # of iterations =  4.9

     negative rho (up, down):  7.200E-05 0.000E+00

     total cpu time spent up to now is        1.4 secs

     total energy              =     -36.74499273 Ry
     estimated scf accuracy    <       0.00248042 Ry

     iteration #  3     ecut=    20.00 Ry     beta= 0.70
     Davidson diagonalization with overlap
     ethr =  3.10E-05,  avg # of iterations =  7.9

     negative rho (up, down):  1.296E-04 0.000E+00

     total cpu time spent up to now is        1.8 secs

     total energy              =     -36.74513487 Ry
     estimated scf accuracy    <       0.00016901 Ry

     iteration #  4     ecut=    20.00 Ry     beta= 0.70
     Davidson diagonalization with overlap
     ethr =  2.11E-06,  avg # of iterations =  4.6

     negative rho (up, down):  9.248E-05 0.000E+00

     total cpu time spent up to now is        2.1 secs

     total energy              =     -36.74514177 Ry
     estimated scf accuracy    <       0.00000031 Ry

     iteration #  5     ecut=    20.00 Ry     beta= 0.70
     Davidson diagonalization with overlap
     ethr =  3.87E-09,  avg # of iterations =  3.3

     negative rho (up, down):  8.877E-05 0.000E+00

     total cpu time spent up to now is        2.3 secs

     total energy              =     -36.74514223 Ry
     estimated scf accuracy    <       0.00000002 Ry

     iteration #  6     ecut=    20.00 Ry     beta= 0.70
     Davidson diagonalization with overlap
     ethr =  2.66E-10,  avg # of iterations =  2.0

     negative rho (up, down):  8.874E-05 0.000E+00

     total cpu time spent up to now is        2.6 secs

     End of self-consistent calculation

          k = 0.0000 0.0000 0.0000 (   801 PWs)   bands (ev):

   -21.5087  -9.2918  -4.6360  -4.6360   1.1302   1.8960   2.1452   4.2439

          k = 0.0000 0.1283 0.0000 (   799 PWs)   bands (ev):

   -21.2108  -8.9506  -5.7941  -5.2020   1.5330   2.2988   2.5478   4.6398

          k = 0.0000 0.2566 0.0000 (   784 PWs)   bands (ev):

   -20.3275  -8.3736  -7.9041  -6.3718   2.7398   3.5052   3.7542   5.8069

          k = 0.0000 0.3849 0.0000 (   792 PWs)   bands (ev):

   -18.8847 -11.3828  -7.4106  -6.2829   3.4076   4.7434   5.5411   5.7410

          k = 0.0000 0.5132 0.0000 (   798 PWs)   bands (ev):

   -16.9600 -14.2053  -8.0019  -4.4041   0.6565   5.6060   7.5402   8.3248

          k = 0.1111 0.1925 0.0000 (   819 PWs)   bands (ev):

   -20.6240  -8.2665  -7.3976  -6.4068   2.3375   3.1036   3.3521   5.4295

          k = 0.1111 0.3208 0.0000 (   794 PWs)   bands (ev):

   -19.4606  -9.8805  -7.7986  -6.9146   3.9443   4.6190   4.8161   4.9598

          k = 0.1111 0.4491 0.0000 (   785 PWs)   bands (ev):

   -17.7598 -12.7064  -8.6737  -5.0640   1.7914   6.3398   7.0483   7.1059

          k = 0.1111 0.5774 0.0000 (   776 PWs)   bands (ev):

   -16.0173 -14.8731  -8.9763  -3.6856   0.0342   6.8809   9.4409   9.5493

          k = 0.2222 0.3849 0.0000 (   791 PWs)   bands (ev):

   -18.0418 -11.4621  -9.8520  -5.3089   2.4364   5.9437   6.6737   6.9652

          k = 0.2222 0.5132 0.0000 (   782 PWs)   bands (ev):

   -16.1609 -13.6137 -10.8598  -3.3990   0.1507   8.7004   9.0117   9.7321

          k = 0.3333 0.5774 0.0000 (   771 PWs)   bands (ev):

   -14.4745 -14.4745 -12.2376  -1.5640  -1.5640   8.8585  11.2562  11.2562

     the Fermi energy is    -1.5640 ev

!    total energy              =     -36.74514225 Ry
     total all-electron energy =      -152.273338 Ry
     estimated scf accuracy    <          5.3E-10 Ry
     smearing contrib. (-TS)   =      -0.00027861 Ry
     internal energy E=F+TS    =     -36.74486364 Ry

     The total energy is F=E-TS. E is the sum of the following terms:
     one-electron contribution =    -153.91684718 Ry
     hartree contribution      =      78.56058848 Ry
     xc contribution           =      -9.24385503 Ry
     ewald contribution        =      60.19597797 Ry
     one-center paw contrib.   =     -12.34072788 Ry

     convergence has been achieved in   6 iterations

     Writing all to output data dir ./tmp/graphene.save/ :
     XML data file, charge density, pseudopotentials, collected wavefunctions

     init_run     :      0.76s CPU      0.73s WALL (       1 calls)
     electrons    :      2.97s CPU      1.73s WALL (       1 calls)

     Called by init_run:
     wfcinit      :      0.19s CPU      0.14s WALL (       1 calls)
     potinit      :      0.29s CPU      0.31s WALL (       1 calls)
     hinit0       :      0.24s CPU      0.25s WALL (       1 calls)

     Called by electrons:
     c_bands      :      1.27s CPU      0.74s WALL (       6 calls)
     sum_band     :      0.41s CPU      0.19s WALL (       6 calls)
     v_of_rho     :      0.45s CPU      0.24s WALL (       7 calls)
     newd         :      0.07s CPU      0.07s WALL (       7 calls)
     PAW_pot      :      0.82s CPU      0.56s WALL (       7 calls)
     mix_rho      :      0.03s CPU      0.02s WALL (       6 calls)

     Called by c_bands:
     init_us_2    :      0.06s CPU      0.03s WALL (     156 calls)
     cegterg      :      1.19s CPU      0.70s WALL (      72 calls)

     Called by *egterg:
     cdiaghg      :      0.09s CPU      0.05s WALL (     409 calls)
     h_psi        :      1.07s CPU      0.65s WALL (     421 calls)
     s_psi        :      0.04s CPU      0.04s WALL (     421 calls)
     g_psi        :      0.01s CPU      0.01s WALL (     337 calls)

     Called by h_psi:
     h_psi:calbec :      0.03s CPU      0.02s WALL (     421 calls)
     vloc_psi     :      0.94s CPU      0.54s WALL (     421 calls)
     add_vuspsi   :      0.08s CPU      0.08s WALL (     421 calls)

     General routines
     calbec       :      0.04s CPU      0.03s WALL (     493 calls)
     fft          :      0.32s CPU      0.25s WALL (      89 calls)
     ffts         :      0.21s CPU      0.21s WALL (      13 calls)
     fftw         :      0.73s CPU      0.43s WALL (    4264 calls)
     interpolate  :      0.21s CPU      0.21s WALL (       7 calls)


     PWSCF        :      3.90s CPU      2.57s WALL


   This run was terminated on:   8: 1:51   9Sep2025            

=------------------------------------------------------------------------------=
   JOB DONE.
=------------------------------------------------------------------------------=
