
     Program PWSCF v.7.4.1 starts on  9Sep2025 at 16:50:54 

     This program is part of the open-source Quantum ESPRESSO suite
     for quantum simulation of materials; please cite
         "P. Giannozzi et al., J. Phys.:Condens. Matter 21 395502 (2009);
         "P. Giannozzi et al., J. Phys.:Condens. Matter 29 465901 (2017);
         "P. Giannozzi et al., J. Chem. Phys. 152 154105 (2020);
          URL http://www.quantum-espresso.org", 
     in publications or presentations arising from this work. More details at
     http://www.quantum-espresso.org/quote

     Serial version
     22246 MiB available memory on the printing compute node when the environment starts

     Waiting for input...
     Reading input from standard input

     Current dimensions of program PWSCF are:
     Max number of different atomic species (ntypx) = 10
     Max number of k-points (npk) =  40000
     Max angular momentum in pseudopotentials (lmaxx) =  4
     file C.pbe-n-kjpaw_psl.1.0.0.UPF: wavefunction(s)  2S 2P renormalized


     G-vector sticks info
     --------------------
     sticks:   dense  smooth     PW     G-vecs:    dense   smooth      PW
     Sum         673     265     85                84597    21311    3883

     Using Slab Decomposition



     bravais-lattice index     =            4
     lattice parameter (alat)  =       4.6540  a.u.
     unit-cell volume          =     523.7946 (a.u.)^3
     number of atoms/cell      =            2
     number of atomic types    =            1
     number of electrons       =         8.00
     number of Kohn-Sham states=            8
     kinetic-energy cutoff     =      45.0000  Ry
     charge density cutoff     =     450.0000  Ry
     scf convergence threshold =      1.0E-08
     mixing beta               =       0.7000
     number of iterations used =            8  plain     mixing
     Exchange-correlation= SLA  PW   PBX  PBC
                           (   1   4   3   4   0   0   0)

     celldm(1)=   4.654000  celldm(2)=   0.000000  celldm(3)=   6.000000
     celldm(4)=   0.000000  celldm(5)=   0.000000  celldm(6)=   0.000000

     crystal axes: (cart. coord. in units of alat)
               a(1) = (   1.000000   0.000000   0.000000 )  
               a(2) = (  -0.500000   0.866025   0.000000 )  
               a(3) = (   0.000000   0.000000   6.000000 )  

     reciprocal axes: (cart. coord. in units 2 pi/alat)
               b(1) = (  1.000000  0.577350 -0.000000 )  
               b(2) = (  0.000000  1.154701  0.000000 )  
               b(3) = (  0.000000 -0.000000  0.166667 )  


     PseudoPot. # 1 for C  read from file:
     ../../../../../pseudos/C.pbe-n-kjpaw_psl.1.0.0.UPF
     MD5 check sum: 5d2aebdfa2cae82b50a7e79e9516da0f
     Pseudo is Projector augmented-wave + core cor, Zval =  4.0
     Generated using "atomic" code by A. Dal Corso  v.5.1
     Shape of augmentation charge: PSQ
     Using radial grid of 1073 points,  4 beta functions with: 
                l(1) =   0
                l(2) =   0
                l(3) =   1
                l(4) =   1
     Q(r) pseudized with 0 coefficients 


     atomic species   valence    mass     pseudopotential
     C                 4.00    12.01070     C ( 1.00)

     24 Sym. Ops., with inversion, found (12 have fractional translation)



   Cartesian axes

     site n.     atom                  positions (alat units)
         1        C      tau(   1) = (   0.0000000   0.0000000   0.0000000  )
         2        C      tau(   2) = (   0.0000000   0.5773503   0.0000000  )

     number of k points=    16  Gaussian smearing, width (Ry)=  0.0100
                       cart. coord. in units 2pi/alat
        k(    1) = (   0.0000000   0.0000000   0.0000000), wk =   0.0165289
        k(    2) = (   0.0000000   0.1049728   0.0000000), wk =   0.0991736
        k(    3) = (   0.0000000   0.2099456   0.0000000), wk =   0.0991736
        k(    4) = (   0.0000000   0.3149183   0.0000000), wk =   0.0991736
        k(    5) = (   0.0000000   0.4198911   0.0000000), wk =   0.0991736
        k(    6) = (   0.0000000   0.5248639   0.0000000), wk =   0.0991736
        k(    7) = (   0.0909091   0.1574592   0.0000000), wk =   0.0991736
        k(    8) = (   0.0909091   0.2624319   0.0000000), wk =   0.1983471
        k(    9) = (   0.0909091   0.3674047   0.0000000), wk =   0.1983471
        k(   10) = (   0.0909091   0.4723775   0.0000000), wk =   0.1983471
        k(   11) = (   0.0909091   0.5773503   0.0000000), wk =   0.0991736
        k(   12) = (   0.1818182   0.3149183   0.0000000), wk =   0.0991736
        k(   13) = (   0.1818182   0.4198911   0.0000000), wk =   0.1983471
        k(   14) = (   0.1818182   0.5248639   0.0000000), wk =   0.1983471
        k(   15) = (   0.2727273   0.4723775   0.0000000), wk =   0.0991736
        k(   16) = (   0.2727273   0.5773503   0.0000000), wk =   0.0991736

     Dense  grid:    84597 G-vectors     FFT dimensions: (  36,  36, 192)

     Smooth grid:    21311 G-vectors     FFT dimensions: (  24,  24, 120)

     Estimated max dynamical RAM per process >     116.55 MB

     Initial potential from superposition of free atoms

     starting charge       7.9999, renormalised to       8.0000

     negative rho (up, down):  1.033E-05 0.000E+00
     Starting wfcs are    8 randomized atomic wfcs

     total cpu time spent up to now is        1.9 secs

     Self-consistent Calculation

     iteration #  1     ecut=    45.00 Ry     beta= 0.70
     Davidson diagonalization with overlap
     ethr =  1.00E-02,  avg # of iterations =  5.4

     negative rho (up, down):  2.490E-05 0.000E+00

     total cpu time spent up to now is        3.2 secs

     total energy              =     -36.85841234 Ry
     estimated scf accuracy    <       0.19734878 Ry

     iteration #  2     ecut=    45.00 Ry     beta= 0.70
     Davidson diagonalization with overlap
     ethr =  2.47E-03,  avg # of iterations =  3.2

     negative rho (up, down):  3.619E-05 0.000E+00

     total cpu time spent up to now is        4.2 secs

     total energy              =     -36.88679265 Ry
     estimated scf accuracy    <       0.00213586 Ry

     iteration #  3     ecut=    45.00 Ry     beta= 0.70
     Davidson diagonalization with overlap
     ethr =  2.67E-05,  avg # of iterations =  9.3

     negative rho (up, down):  4.384E-05 0.000E+00

     total cpu time spent up to now is        5.8 secs

     total energy              =     -36.88703892 Ry
     estimated scf accuracy    <       0.00015787 Ry

     iteration #  4     ecut=    45.00 Ry     beta= 0.70
     Davidson diagonalization with overlap
     ethr =  1.97E-06,  avg # of iterations =  4.0

     negative rho (up, down):  4.483E-05 0.000E+00

     total cpu time spent up to now is        6.8 secs

     total energy              =     -36.88704814 Ry
     estimated scf accuracy    <       0.00000130 Ry

     iteration #  5     ecut=    45.00 Ry     beta= 0.70
     Davidson diagonalization with overlap
     ethr =  1.62E-08,  avg # of iterations =  2.9

     negative rho (up, down):  4.499E-05 0.000E+00

     total cpu time spent up to now is        7.8 secs

     total energy              =     -36.88704888 Ry
     estimated scf accuracy    <       0.00000002 Ry

     iteration #  6     ecut=    45.00 Ry     beta= 0.70
     Davidson diagonalization with overlap
     ethr =  2.95E-10,  avg # of iterations =  2.4

     negative rho (up, down):  4.505E-05 0.000E+00

     total cpu time spent up to now is        8.7 secs

     End of self-consistent calculation

          k = 0.0000 0.0000 0.0000 (  2603 PWs)   bands (ev):

   -21.2246  -9.3129  -4.7170  -4.7170   1.5498   2.4487   2.8672   4.8427

          k = 0.0000 0.1050 0.0000 (  2629 PWs)   bands (ev):

   -21.0291  -9.0790  -5.4857  -5.1164   1.8161   2.7170   3.1377   5.1087

          k = 0.0000 0.2099 0.0000 (  2653 PWs)   bands (ev):

   -20.4451  -8.3850  -7.3716  -6.0159   2.6145   3.5194   3.9490   5.9011

          k = 0.0000 0.3149 0.0000 (  2651 PWs)   bands (ev):

   -19.4810  -9.7161  -7.2599  -6.9581   3.9416   4.7316   5.1036   5.2985

          k = 0.0000 0.4199 0.0000 (  2664 PWs)   bands (ev):

   -18.1561 -12.1086  -7.6792  -5.7892   2.4379   5.7428   6.0410   6.7371

          k = 0.0000 0.5249 0.0000 (  2680 PWs)   bands (ev):

   -16.5444 -14.2903  -8.0617  -4.3301   0.3918   5.7851   8.1626   9.0922

          k = 0.0909 0.1575 0.0000 (  2641 PWs)   bands (ev):

   -20.6393  -8.6149  -6.6656  -5.9156   2.3487   3.2526   3.6788   5.6394

          k = 0.0909 0.2624 0.0000 (  2656 PWs)   bands (ev):

   -19.8653  -8.5869  -7.7031  -7.0346   3.4127   4.3168   4.7609   5.9413

          k = 0.0909 0.3674 0.0000 (  2659 PWs)   bands (ev):

   -18.7203 -10.8722  -7.9511  -6.3918   3.5462   5.0014   5.9277   6.3774

          k = 0.0909 0.4724 0.0000 (  2684 PWs)   bands (ev):

   -17.2377 -13.1433  -8.5323  -4.8397   1.2313   6.6877   7.1391   8.0189

          k = 0.0909 0.5774 0.0000 (  2681 PWs)   bands (ev):

   -15.8418 -14.8164  -8.7307  -3.8543  -0.0303   6.6098   9.6131   9.7714

          k = 0.1818 0.3149 0.0000 (  2671 PWs)   bands (ev):

   -18.9102  -9.9950  -8.5855  -6.5975   4.0575   4.7396   5.6377   6.1136

          k = 0.1818 0.4199 0.0000 (  2684 PWs)   bands (ev):

   -17.6025 -11.8574  -9.6702  -5.1444   1.9678   6.5819   7.4344   8.0012

          k = 0.1818 0.5249 0.0000 (  2689 PWs)   bands (ev):

   -16.0244 -13.8526 -10.1462  -3.6491   0.1074   8.7052   8.9479   9.4048

          k = 0.2727 0.4724 0.0000 (  2707 PWs)   bands (ev):

   -16.1753 -12.8588 -11.2602  -3.6239   0.2995   8.6413   8.9440  10.1464

          k = 0.2727 0.5774 0.0000 (  2701 PWs)   bands (ev):

   -14.8400 -14.0761 -11.7962  -2.4377  -0.9264   9.1190  10.8213  10.8870

     the Fermi energy is    -1.6311 ev

!    total energy              =     -36.88704888 Ry
     total all-electron energy =      -152.415245 Ry
     estimated scf accuracy    <          5.8E-10 Ry
     smearing contrib. (-TS)   =      -0.00000000 Ry
     internal energy E=F+TS    =     -36.88704888 Ry

     The total energy is F=E-TS. E is the sum of the following terms:
     one-electron contribution =    -154.20901120 Ry
     hartree contribution      =      78.73918410 Ry
     xc contribution           =      -9.27930226 Ry
     ewald contribution        =      60.19597803 Ry
     one-center paw contrib.   =     -12.33389756 Ry

     convergence has been achieved in   6 iterations

     Writing all to output data dir ./tmp/graphene.save/ :
     XML data file, charge density, pseudopotentials, collected wavefunctions

     init_run     :      1.89s CPU      1.74s WALL (       1 calls)
     electrons    :     11.42s CPU      6.88s WALL (       1 calls)

     Called by init_run:
     wfcinit      :      0.69s CPU      0.49s WALL (       1 calls)
     potinit      :      0.55s CPU      0.58s WALL (       1 calls)
     hinit0       :      0.57s CPU      0.58s WALL (       1 calls)

     Called by electrons:
     c_bands      :      8.02s CPU      4.44s WALL (       6 calls)
     sum_band     :      1.94s CPU      1.05s WALL (       6 calls)
     v_of_rho     :      0.75s CPU      0.66s WALL (       7 calls)
     newd         :      0.28s CPU      0.38s WALL (       7 calls)
     PAW_pot      :      0.46s CPU      0.46s WALL (       7 calls)
     mix_rho      :      0.10s CPU      0.06s WALL (       6 calls)

     Called by c_bands:
     init_us_2    :      0.24s CPU      0.14s WALL (     208 calls)
     cegterg      :      7.70s CPU      4.26s WALL (      96 calls)

     Called by *egterg:
     cdiaghg      :      0.17s CPU      0.07s WALL (     532 calls)
     h_psi        :      7.31s CPU      4.22s WALL (     548 calls)
     s_psi        :      0.09s CPU      0.05s WALL (     548 calls)
     g_psi        :      0.07s CPU      0.02s WALL (     436 calls)

     Called by h_psi:
     h_psi:calbec :      0.15s CPU      0.08s WALL (     548 calls)
     vloc_psi     :      6.91s CPU      3.95s WALL (     548 calls)
     add_vuspsi   :      0.20s CPU      0.18s WALL (     548 calls)

     General routines
     calbec       :      0.18s CPU      0.10s WALL (     644 calls)
     fft          :      0.75s CPU      0.67s WALL (      89 calls)
     ffts         :      0.41s CPU      0.40s WALL (      13 calls)
     fftw         :      5.70s CPU      3.39s WALL (    5764 calls)
     interpolate  :      0.42s CPU      0.42s WALL (       7 calls)


     PWSCF        :     13.52s CPU      8.77s WALL


   This run was terminated on:  16:51: 3   9Sep2025            

=------------------------------------------------------------------------------=
   JOB DONE.
=------------------------------------------------------------------------------=
