
     Program PWSCF v.7.4.1 starts on  9Sep2025 at  8:41:16 

     This program is part of the open-source Quantum ESPRESSO suite
     for quantum simulation of materials; please cite
         "P. Giannozzi et al., J. Phys.:Condens. Matter 21 395502 (2009);
         "P. Giannozzi et al., J. Phys.:Condens. Matter 29 465901 (2017);
         "P. Giannozzi et al., J. Chem. Phys. 152 154105 (2020);
          URL http://www.quantum-espresso.org", 
     in publications or presentations arising from this work. More details at
     http://www.quantum-espresso.org/quote

     Serial version
     8134 MiB available memory on the printing compute node when the environment starts

     Waiting for input...
     Reading input from standard input

     Current dimensions of program PWSCF are:
     Max number of different atomic species (ntypx) = 10
     Max number of k-points (npk) =  40000
     Max angular momentum in pseudopotentials (lmaxx) =  4
     file C.pbe-n-kjpaw_psl.1.0.0.UPF: wavefunction(s)  2S 2P renormalized


     G-vector sticks info
     --------------------
     sticks:   dense  smooth     PW     G-vecs:    dense   smooth      PW
     Sum         295     121     37                24383     6259    1307

     Using Slab Decomposition



     bravais-lattice index     =            4
     lattice parameter (alat)  =       4.6140  a.u.
     unit-cell volume          =     510.4047 (a.u.)^3
     number of atoms/cell      =            2
     number of atomic types    =            1
     number of electrons       =         8.00
     number of Kohn-Sham states=            8
     kinetic-energy cutoff     =      20.0000  Ry
     charge density cutoff     =     200.0000  Ry
     scf convergence threshold =      1.0E-08
     mixing beta               =       0.7000
     number of iterations used =            8  plain     mixing
     Exchange-correlation= SLA  PW   PBX  PBC
                           (   1   4   3   4   0   0   0)

     celldm(1)=   4.614000  celldm(2)=   0.000000  celldm(3)=   6.000000
     celldm(4)=   0.000000  celldm(5)=   0.000000  celldm(6)=   0.000000

     crystal axes: (cart. coord. in units of alat)
               a(1) = (   1.000000   0.000000   0.000000 )  
               a(2) = (  -0.500000   0.866025   0.000000 )  
               a(3) = (   0.000000   0.000000   6.000000 )  

     reciprocal axes: (cart. coord. in units 2 pi/alat)
               b(1) = (  1.000000  0.577350 -0.000000 )  
               b(2) = (  0.000000  1.154701  0.000000 )  
               b(3) = (  0.000000 -0.000000  0.166667 )  


     PseudoPot. # 1 for C  read from file:
     ../../../../../pseudos/C.pbe-n-kjpaw_psl.1.0.0.UPF
     MD5 check sum: 5d2aebdfa2cae82b50a7e79e9516da0f
     Pseudo is Projector augmented-wave + core cor, Zval =  4.0
     Generated using "atomic" code by A. Dal Corso  v.5.1
     Shape of augmentation charge: PSQ
     Using radial grid of 1073 points,  4 beta functions with: 
                l(1) =   0
                l(2) =   0
                l(3) =   1
                l(4) =   1
     Q(r) pseudized with 0 coefficients 


     atomic species   valence    mass     pseudopotential
     C                 4.00    12.01070     C ( 1.00)

     24 Sym. Ops., with inversion, found (12 have fractional translation)



   Cartesian axes

     site n.     atom                  positions (alat units)
         1        C      tau(   1) = (   0.0000000   0.0000000   0.0000000  )
         2        C      tau(   2) = (   0.0000000   0.5773503   0.0000000  )

     number of k points=    12  Gaussian smearing, width (Ry)=  0.0100
                       cart. coord. in units 2pi/alat
        k(    1) = (   0.0000000   0.0000000   0.0000000), wk =   0.0246914
        k(    2) = (   0.0000000   0.1283001   0.0000000), wk =   0.1481481
        k(    3) = (   0.0000000   0.2566001   0.0000000), wk =   0.1481481
        k(    4) = (   0.0000000   0.3849002   0.0000000), wk =   0.1481481
        k(    5) = (   0.0000000   0.5132002   0.0000000), wk =   0.1481481
        k(    6) = (   0.1111111   0.1924501   0.0000000), wk =   0.1481481
        k(    7) = (   0.1111111   0.3207501   0.0000000), wk =   0.2962963
        k(    8) = (   0.1111111   0.4490502   0.0000000), wk =   0.2962963
        k(    9) = (   0.1111111   0.5773503   0.0000000), wk =   0.1481481
        k(   10) = (   0.2222222   0.3849002   0.0000000), wk =   0.1481481
        k(   11) = (   0.2222222   0.5132002   0.0000000), wk =   0.2962963
        k(   12) = (   0.3333333   0.5773503   0.0000000), wk =   0.0493827

     Dense  grid:    24383 G-vectors     FFT dimensions: (  24,  24, 125)

     Smooth grid:     6259 G-vectors     FFT dimensions: (  15,  15,  80)

     Estimated max dynamical RAM per process >      33.42 MB

     Check: negative core charge=   -0.000025

     Initial potential from superposition of free atoms

     starting charge       7.9999, renormalised to       8.0000

     negative rho (up, down):  5.140E-05 0.000E+00
     Starting wfcs are    8 randomized atomic wfcs

     total cpu time spent up to now is        0.9 secs

     Self-consistent Calculation

     iteration #  1     ecut=    20.00 Ry     beta= 0.70
     Davidson diagonalization with overlap
     ethr =  1.00E-02,  avg # of iterations =  6.5

     negative rho (up, down):  3.953E-05 0.000E+00

     total cpu time spent up to now is        1.2 secs

     total energy              =     -36.71617502 Ry
     estimated scf accuracy    <       0.18314746 Ry

     iteration #  2     ecut=    20.00 Ry     beta= 0.70
     Davidson diagonalization with overlap
     ethr =  2.29E-03,  avg # of iterations =  3.2

     negative rho (up, down):  6.793E-05 0.000E+00

     total cpu time spent up to now is        1.5 secs

     total energy              =     -36.74185747 Ry
     estimated scf accuracy    <       0.00252850 Ry

     iteration #  3     ecut=    20.00 Ry     beta= 0.70
     Davidson diagonalization with overlap
     ethr =  3.16E-05,  avg # of iterations =  7.4

     negative rho (up, down):  1.243E-04 0.000E+00

     total cpu time spent up to now is        1.8 secs

     total energy              =     -36.74201466 Ry
     estimated scf accuracy    <       0.00017149 Ry

     iteration #  4     ecut=    20.00 Ry     beta= 0.70
     Davidson diagonalization with overlap
     ethr =  2.14E-06,  avg # of iterations =  3.4

     negative rho (up, down):  8.658E-05 0.000E+00

     total cpu time spent up to now is        2.1 secs

     total energy              =     -36.74202231 Ry
     estimated scf accuracy    <       0.00000032 Ry

     iteration #  5     ecut=    20.00 Ry     beta= 0.70
     Davidson diagonalization with overlap
     ethr =  4.02E-09,  avg # of iterations =  3.2

     negative rho (up, down):  8.355E-05 0.000E+00

     total cpu time spent up to now is        2.3 secs

     total energy              =     -36.74202282 Ry
     estimated scf accuracy    <       0.00000002 Ry

     iteration #  6     ecut=    20.00 Ry     beta= 0.70
     Davidson diagonalization with overlap
     ethr =  2.76E-10,  avg # of iterations =  2.5

     negative rho (up, down):  8.370E-05 0.000E+00

     total cpu time spent up to now is        2.6 secs

     End of self-consistent calculation

          k = 0.0000 0.0000 0.0000 (   801 PWs)   bands (ev):

   -21.5928  -9.3591  -4.5245  -4.5245   1.1744   1.9542   2.2061   4.3413

          k = 0.0000 0.1283 0.0000 (   787 PWs)   bands (ev):

   -21.2905  -9.0083  -5.6440  -5.0760   1.5841   2.3642   2.6154   4.7447

          k = 0.0000 0.2566 0.0000 (   768 PWs)   bands (ev):

   -20.3944  -8.2673  -7.9393  -6.2617   2.8116   3.5921   3.8424   5.9364

          k = 0.0000 0.3849 0.0000 (   754 PWs)   bands (ev):

   -18.9206 -11.3347  -7.3000  -6.2461   3.6574   4.8513   5.6668   5.8751

          k = 0.0000 0.5132 0.0000 (   786 PWs)   bands (ev):

   -16.9620 -14.2108  -7.9533  -4.3582   0.7946   5.9851   7.6969   8.4982

          k = 0.1111 0.1925 0.0000 (   775 PWs)   bands (ev):

   -20.6908  -8.2949  -7.2173  -6.2787   2.4031   3.1841   3.4340   5.5502

          k = 0.1111 0.3208 0.0000 (   774 PWs)   bands (ev):

   -19.5114  -9.7966  -7.7332  -6.9060   4.0373   4.7709   5.0405   5.0691

          k = 0.1111 0.4491 0.0000 (   769 PWs)   bands (ev):

   -17.7830 -12.6805  -8.6356  -5.0103   1.9812   6.4749   7.2593   7.4081

          k = 0.1111 0.5774 0.0000 (   766 PWs)   bands (ev):

   -15.9830 -14.9135  -8.9405  -3.6173   0.1778   7.2755   9.6316   9.7393

          k = 0.2222 0.3849 0.0000 (   771 PWs)   bands (ev):

   -18.0673 -11.3858  -9.8211  -5.2836   2.6650   6.0717   6.8169   7.1093

          k = 0.2222 0.5132 0.0000 (   768 PWs)   bands (ev):

   -16.1555 -13.5846 -10.8560  -3.3241   0.3169   8.8768   9.1948   9.9348

          k = 0.3333 0.5774 0.0000 (   771 PWs)   bands (ev):

   -14.4324 -14.4324 -12.3237  -1.4619  -1.4619   9.0205  11.5236  11.5236

     the Fermi energy is    -1.4619 ev

!    total energy              =     -36.74202280 Ry
     total all-electron energy =      -152.270218 Ry
     estimated scf accuracy    <          5.6E-10 Ry
     smearing contrib. (-TS)   =      -0.00027861 Ry
     internal energy E=F+TS    =     -36.74174419 Ry

     The total energy is F=E-TS. E is the sum of the following terms:
     one-electron contribution =    -154.94121422 Ry
     hartree contribution      =      79.10722981 Ry
     xc contribution           =      -9.28307908 Ry
     ewald contribution        =      60.71783299 Ry
     one-center paw contrib.   =     -12.34251369 Ry

     convergence has been achieved in   6 iterations

     Writing all to output data dir ./tmp/graphene.save/ :
     XML data file, charge density, pseudopotentials, collected wavefunctions

     init_run     :      0.78s CPU      0.76s WALL (       1 calls)
     electrons    :      2.86s CPU      1.69s WALL (       1 calls)

     Called by init_run:
     wfcinit      :      0.19s CPU      0.14s WALL (       1 calls)
     potinit      :      0.31s CPU      0.33s WALL (       1 calls)
     hinit0       :      0.25s CPU      0.26s WALL (       1 calls)

     Called by electrons:
     c_bands      :      1.15s CPU      0.65s WALL (       6 calls)
     sum_band     :      0.40s CPU      0.20s WALL (       6 calls)
     v_of_rho     :      0.46s CPU      0.25s WALL (       7 calls)
     newd         :      0.08s CPU      0.08s WALL (       7 calls)
     PAW_pot      :      0.84s CPU      0.60s WALL (       7 calls)
     mix_rho      :      0.03s CPU      0.02s WALL (       6 calls)

     Called by c_bands:
     init_us_2    :      0.05s CPU      0.03s WALL (     156 calls)
     cegterg      :      1.09s CPU      0.62s WALL (      72 calls)

     Called by *egterg:
     cdiaghg      :      0.08s CPU      0.04s WALL (     386 calls)
     h_psi        :      1.00s CPU      0.59s WALL (     398 calls)
     s_psi        :      0.03s CPU      0.03s WALL (     398 calls)
     g_psi        :      0.01s CPU      0.00s WALL (     314 calls)

     Called by h_psi:
     h_psi:calbec :      0.03s CPU      0.02s WALL (     398 calls)
     vloc_psi     :      0.90s CPU      0.52s WALL (     398 calls)
     add_vuspsi   :      0.06s CPU      0.05s WALL (     398 calls)

     General routines
     calbec       :      0.04s CPU      0.02s WALL (     470 calls)
     fft          :      0.31s CPU      0.26s WALL (      89 calls)
     ffts         :      0.20s CPU      0.20s WALL (      13 calls)
     fftw         :      0.70s CPU      0.42s WALL (    4178 calls)
     interpolate  :      0.21s CPU      0.21s WALL (       7 calls)


     PWSCF        :      3.86s CPU      2.58s WALL


   This run was terminated on:   8:41:19   9Sep2025            

=------------------------------------------------------------------------------=
   JOB DONE.
=------------------------------------------------------------------------------=
