
     Program PWSCF v.7.4.1 starts on  9Sep2025 at  8:40:17 

     This program is part of the open-source Quantum ESPRESSO suite
     for quantum simulation of materials; please cite
         "P. Giannozzi et al., J. Phys.:Condens. Matter 21 395502 (2009);
         "P. Giannozzi et al., J. Phys.:Condens. Matter 29 465901 (2017);
         "P. Giannozzi et al., J. Chem. Phys. 152 154105 (2020);
          URL http://www.quantum-espresso.org", 
     in publications or presentations arising from this work. More details at
     http://www.quantum-espresso.org/quote

     Serial version
     8178 MiB available memory on the printing compute node when the environment starts

     Waiting for input...
     Reading input from standard input

     Current dimensions of program PWSCF are:
     Max number of different atomic species (ntypx) = 10
     Max number of k-points (npk) =  40000
     Max angular momentum in pseudopotentials (lmaxx) =  4
     file C.pbe-n-kjpaw_psl.1.0.0.UPF: wavefunction(s)  2S 2P renormalized


     G-vector sticks info
     --------------------
     sticks:   dense  smooth     PW     G-vecs:    dense   smooth      PW
     Sum         151      61     19                 8711     2191     533

     Using Slab Decomposition



     bravais-lattice index     =            4
     lattice parameter (alat)  =       4.6140  a.u.
     unit-cell volume          =     510.4047 (a.u.)^3
     number of atoms/cell      =            2
     number of atomic types    =            1
     number of electrons       =         8.00
     number of Kohn-Sham states=            8
     kinetic-energy cutoff     =      10.0000  Ry
     charge density cutoff     =     100.0000  Ry
     scf convergence threshold =      1.0E-08
     mixing beta               =       0.7000
     number of iterations used =            8  plain     mixing
     Exchange-correlation= SLA  PW   PBX  PBC
                           (   1   4   3   4   0   0   0)

     celldm(1)=   4.614000  celldm(2)=   0.000000  celldm(3)=   6.000000
     celldm(4)=   0.000000  celldm(5)=   0.000000  celldm(6)=   0.000000

     crystal axes: (cart. coord. in units of alat)
               a(1) = (   1.000000   0.000000   0.000000 )  
               a(2) = (  -0.500000   0.866025   0.000000 )  
               a(3) = (   0.000000   0.000000   6.000000 )  

     reciprocal axes: (cart. coord. in units 2 pi/alat)
               b(1) = (  1.000000  0.577350 -0.000000 )  
               b(2) = (  0.000000  1.154701  0.000000 )  
               b(3) = (  0.000000 -0.000000  0.166667 )  


     PseudoPot. # 1 for C  read from file:
     ../../../../../pseudos/C.pbe-n-kjpaw_psl.1.0.0.UPF
     MD5 check sum: 5d2aebdfa2cae82b50a7e79e9516da0f
     Pseudo is Projector augmented-wave + core cor, Zval =  4.0
     Generated using "atomic" code by A. Dal Corso  v.5.1
     Shape of augmentation charge: PSQ
     Using radial grid of 1073 points,  4 beta functions with: 
                l(1) =   0
                l(2) =   0
                l(3) =   1
                l(4) =   1
     Q(r) pseudized with 0 coefficients 


     atomic species   valence    mass     pseudopotential
     C                 4.00    12.01070     C ( 1.00)

     24 Sym. Ops., with inversion, found (12 have fractional translation)



   Cartesian axes

     site n.     atom                  positions (alat units)
         1        C      tau(   1) = (   0.0000000   0.0000000   0.0000000  )
         2        C      tau(   2) = (   0.0000000   0.5773503   0.0000000  )

     number of k points=    12  Gaussian smearing, width (Ry)=  0.0100
                       cart. coord. in units 2pi/alat
        k(    1) = (   0.0000000   0.0000000   0.0000000), wk =   0.0246914
        k(    2) = (   0.0000000   0.1283001   0.0000000), wk =   0.1481481
        k(    3) = (   0.0000000   0.2566001   0.0000000), wk =   0.1481481
        k(    4) = (   0.0000000   0.3849002   0.0000000), wk =   0.1481481
        k(    5) = (   0.0000000   0.5132002   0.0000000), wk =   0.1481481
        k(    6) = (   0.1111111   0.1924501   0.0000000), wk =   0.1481481
        k(    7) = (   0.1111111   0.3207501   0.0000000), wk =   0.2962963
        k(    8) = (   0.1111111   0.4490502   0.0000000), wk =   0.2962963
        k(    9) = (   0.1111111   0.5773503   0.0000000), wk =   0.1481481
        k(   10) = (   0.2222222   0.3849002   0.0000000), wk =   0.1481481
        k(   11) = (   0.2222222   0.5132002   0.0000000), wk =   0.2962963
        k(   12) = (   0.3333333   0.5773503   0.0000000), wk =   0.0493827

     Dense  grid:     8711 G-vectors     FFT dimensions: (  15,  15,  90)

     Smooth grid:     2191 G-vectors     FFT dimensions: (   9,   9,  60)

     Estimated max dynamical RAM per process >      12.34 MB

     Check: negative core charge=   -0.000456

     Initial potential from superposition of free atoms

     starting charge       7.9999, renormalised to       8.0000

     negative rho (up, down):  7.777E-05 0.000E+00
     Starting wfcs are    8 randomized atomic wfcs

     total cpu time spent up to now is        0.7 secs

     Self-consistent Calculation

     iteration #  1     ecut=    10.00 Ry     beta= 0.70
     Davidson diagonalization with overlap
     ethr =  1.00E-02,  avg # of iterations =  7.7

     negative rho (up, down):  3.861E-03 0.000E+00

     total cpu time spent up to now is        0.9 secs

     total energy              =     -35.86289177 Ry
     estimated scf accuracy    <       0.12226051 Ry

     iteration #  2     ecut=    10.00 Ry     beta= 0.70
     Davidson diagonalization with overlap
     ethr =  1.53E-03,  avg # of iterations =  1.4

     negative rho (up, down):  5.224E-03 0.000E+00

     total cpu time spent up to now is        1.0 secs

     total energy              =     -35.86567469 Ry
     estimated scf accuracy    <       0.00837502 Ry

     iteration #  3     ecut=    10.00 Ry     beta= 0.70
     Davidson diagonalization with overlap
     ethr =  1.05E-04,  avg # of iterations =  3.8

     negative rho (up, down):  5.523E-03 0.000E+00

     total cpu time spent up to now is        1.2 secs

     total energy              =     -35.86579539 Ry
     estimated scf accuracy    <       0.00007737 Ry

     iteration #  4     ecut=    10.00 Ry     beta= 0.70
     Davidson diagonalization with overlap
     ethr =  9.67E-07,  avg # of iterations =  5.9

     negative rho (up, down):  5.605E-03 0.000E+00

     total cpu time spent up to now is        1.4 secs

     total energy              =     -35.86580560 Ry
     estimated scf accuracy    <       0.00000063 Ry

     iteration #  5     ecut=    10.00 Ry     beta= 0.70
     Davidson diagonalization with overlap
     ethr =  7.89E-09,  avg # of iterations =  2.4

     negative rho (up, down):  5.635E-03 0.000E+00

     total cpu time spent up to now is        1.5 secs

     total energy              =     -35.86580671 Ry
     estimated scf accuracy    <       0.00000001 Ry

     iteration #  6     ecut=    10.00 Ry     beta= 0.70
     Davidson diagonalization with overlap
     ethr =  1.57E-10,  avg # of iterations =  2.3

     negative rho (up, down):  5.648E-03 0.000E+00

     total cpu time spent up to now is        1.7 secs

     End of self-consistent calculation

          k = 0.0000 0.0000 0.0000 (   285 PWs)   bands (ev):

   -23.5420  -9.2999  -3.2551  -3.2551  -0.2371   0.4759   0.8876   3.0665

          k = 0.0000 0.1283 0.0000 (   280 PWs)   bands (ev):

   -23.2255  -8.8619  -5.1099  -4.0543   0.1757   0.8918   1.2988   3.4823

          k = 0.0000 0.2566 0.0000 (   276 PWs)   bands (ev):

   -22.2658  -8.5996  -7.7015  -5.5633   1.4139   2.1300   2.5324   4.7050

          k = 0.0000 0.3849 0.0000 (   272 PWs)   bands (ev):

   -20.6562 -12.1265  -6.8534  -6.0205   3.4765   4.0166   4.4860   4.5867

          k = 0.0000 0.5132 0.0000 (   272 PWs)   bands (ev):

   -18.6408 -15.1715  -7.4803  -4.0101   1.2431   4.8897   6.3633   7.0819

          k = 0.1111 0.1925 0.0000 (   279 PWs)   bands (ev):

   -22.5910  -8.1322  -7.4086  -5.3939   1.0012   1.7154   2.1211   4.2947

          k = 0.1111 0.3208 0.0000 (   269 PWs)   bands (ev):

   -21.3003 -10.4340  -7.2124  -6.6283   2.6521   3.3612   3.7662   5.8528

          k = 0.1111 0.4491 0.0000 (   272 PWs)   bands (ev):

   -19.4556 -13.6336  -8.3484  -4.7432   2.5406   5.1238   5.8366   6.2261

          k = 0.1111 0.5774 0.0000 (   274 PWs)   bands (ev):

   -17.7921 -15.7879  -8.7297  -3.2404   0.5287   6.5184   8.3946   8.4278

          k = 0.2222 0.3849 0.0000 (   268 PWs)   bands (ev):

   -19.7624 -12.4425  -9.4125  -4.9998   3.3805   4.7126   5.3934   5.8183

          k = 0.2222 0.5132 0.0000 (   264 PWs)   bands (ev):

   -17.7539 -14.7445 -10.6768  -2.9307   0.8352   7.5882   8.0765   8.6793

          k = 0.3333 0.5774 0.0000 (   264 PWs)   bands (ev):

   -15.9833 -15.9833 -11.9026  -1.0749  -1.0749   8.2839  10.7613  10.7638

     the Fermi energy is    -1.0749 ev

!    total energy              =     -35.86580706 Ry
     total all-electron energy =      -151.394003 Ry
     estimated scf accuracy    <          3.3E-10 Ry
     smearing contrib. (-TS)   =      -0.00027861 Ry
     internal energy E=F+TS    =     -35.86552845 Ry

     The total energy is F=E-TS. E is the sum of the following terms:
     one-electron contribution =    -153.06083867 Ry
     hartree contribution      =      77.93502350 Ry
     xc contribution           =      -9.10715001 Ry
     ewald contribution        =      60.71783305 Ry
     one-center paw contrib.   =     -12.35039631 Ry

     convergence has been achieved in   6 iterations

     negative rho (up, down):  5.648E-03 0.000E+00

     Forces acting on atoms (cartesian axes, Ry/au):

     atom    1 type  1   force =     0.00000000    0.00000000    0.00000000
     atom    2 type  1   force =     0.00000000   -0.00000000    0.00000000

     Total force =     0.000000     Total SCF correction =     0.000000


     Computing stress (Cartesian axis) and pressure


     negative rho (up, down):  5.648E-03 0.000E+00
          total   stress  (Ry/bohr**3)                   (kbar)     P=     -212.25
  -0.00107717   0.00000000   0.00000000         -158.46        0.00        0.00
   0.00000000  -0.00107717   0.00000000            0.00     -158.46        0.00
   0.00000000   0.00000000  -0.00217421            0.00        0.00     -319.84


     Writing all to output data dir ./tmp/graphene.save/ :
     XML data file, charge density, pseudopotentials, collected wavefunctions

     init_run     :      0.57s CPU      0.57s WALL (       1 calls)
     electrons    :      1.72s CPU      0.97s WALL (       1 calls)
     forces       :      0.01s CPU      0.02s WALL (       1 calls)
     stress       :      0.06s CPU      0.05s WALL (       1 calls)

     Called by init_run:
     wfcinit      :      0.11s CPU      0.09s WALL (       1 calls)
     potinit      :      0.23s CPU      0.26s WALL (       1 calls)
     hinit0       :      0.22s CPU      0.22s WALL (       1 calls)

     Called by electrons:
     c_bands      :      0.42s CPU      0.24s WALL (       6 calls)
     sum_band     :      0.13s CPU      0.06s WALL (       6 calls)
     v_of_rho     :      0.09s CPU      0.06s WALL (       7 calls)
     newd         :      0.03s CPU      0.03s WALL (       7 calls)
     PAW_pot      :      1.11s CPU      0.67s WALL (       7 calls)
     mix_rho      :      0.00s CPU      0.00s WALL (       6 calls)

     Called by c_bands:
     init_us_2    :      0.02s CPU      0.01s WALL (     180 calls)
     cegterg      :      0.39s CPU      0.22s WALL (      72 calls)

     Called by *egterg:
     cdiaghg      :      0.07s CPU      0.04s WALL (     355 calls)
     h_psi        :      0.37s CPU      0.23s WALL (     367 calls)
     s_psi        :      0.01s CPU      0.01s WALL (     367 calls)
     g_psi        :      0.00s CPU      0.00s WALL (     283 calls)

     Called by h_psi:
     h_psi:calbec :      0.01s CPU      0.01s WALL (     367 calls)
     vloc_psi     :      0.34s CPU      0.21s WALL (     367 calls)
     add_vuspsi   :      0.01s CPU      0.01s WALL (     367 calls)

     General routines
     calbec       :      0.02s CPU      0.01s WALL (     643 calls)
     fft          :      0.18s CPU      0.17s WALL (     114 calls)
     ffts         :      0.16s CPU      0.16s WALL (      13 calls)
     fftw         :      0.28s CPU      0.18s WALL (    4168 calls)
     interpolate  :      0.16s CPU      0.16s WALL (       7 calls)


     PWSCF        :      2.58s CPU      1.75s WALL


   This run was terminated on:   8:40:19   9Sep2025            

=------------------------------------------------------------------------------=
   JOB DONE.
=------------------------------------------------------------------------------=
