
     Program PWSCF v.7.4.1 starts on  9Sep2025 at 17:12:37 

     This program is part of the open-source Quantum ESPRESSO suite
     for quantum simulation of materials; please cite
         "P. Giannozzi et al., J. Phys.:Condens. Matter 21 395502 (2009);
         "P. Giannozzi et al., J. Phys.:Condens. Matter 29 465901 (2017);
         "P. Giannozzi et al., J. Chem. Phys. 152 154105 (2020);
          URL http://www.quantum-espresso.org", 
     in publications or presentations arising from this work. More details at
     http://www.quantum-espresso.org/quote

     Serial version
     21870 MiB available memory on the printing compute node when the environment starts

     Waiting for input...
     Reading input from standard input

     Current dimensions of program PWSCF are:
     Max number of different atomic species (ntypx) = 10
     Max number of k-points (npk) =  40000
     Max angular momentum in pseudopotentials (lmaxx) =  4
     file C.pbe-n-kjpaw_psl.1.0.0.UPF: wavefunction(s)  2S 2P renormalized


     G-vector sticks info
     --------------------
     sticks:   dense  smooth     PW     G-vecs:    dense   smooth      PW
     Sum         661     253     85                82267    20639    3823

     Using Slab Decomposition



     bravais-lattice index     =            4
     lattice parameter (alat)  =       4.6140  a.u.
     unit-cell volume          =     510.4047 (a.u.)^3
     number of atoms/cell      =            2
     number of atomic types    =            1
     number of electrons       =         8.00
     number of Kohn-Sham states=            8
     kinetic-energy cutoff     =      45.0000  Ry
     charge density cutoff     =     450.0000  Ry
     scf convergence threshold =      1.0E-08
     mixing beta               =       0.7000
     number of iterations used =            8  plain     mixing
     Exchange-correlation= SLA  PW   PBX  PBC
                           (   1   4   3   4   0   0   0)

     celldm(1)=   4.614000  celldm(2)=   0.000000  celldm(3)=   6.000000
     celldm(4)=   0.000000  celldm(5)=   0.000000  celldm(6)=   0.000000

     crystal axes: (cart. coord. in units of alat)
               a(1) = (   1.000000   0.000000   0.000000 )  
               a(2) = (  -0.500000   0.866025   0.000000 )  
               a(3) = (   0.000000   0.000000   6.000000 )  

     reciprocal axes: (cart. coord. in units 2 pi/alat)
               b(1) = (  1.000000  0.577350 -0.000000 )  
               b(2) = (  0.000000  1.154701  0.000000 )  
               b(3) = (  0.000000 -0.000000  0.166667 )  


     PseudoPot. # 1 for C  read from file:
     ../../../../../pseudos/C.pbe-n-kjpaw_psl.1.0.0.UPF
     MD5 check sum: 5d2aebdfa2cae82b50a7e79e9516da0f
     Pseudo is Projector augmented-wave + core cor, Zval =  4.0
     Generated using "atomic" code by A. Dal Corso  v.5.1
     Shape of augmentation charge: PSQ
     Using radial grid of 1073 points,  4 beta functions with: 
                l(1) =   0
                l(2) =   0
                l(3) =   1
                l(4) =   1
     Q(r) pseudized with 0 coefficients 


     atomic species   valence    mass     pseudopotential
     C                 4.00    12.01070     C ( 1.00)

     24 Sym. Ops., with inversion, found (12 have fractional translation)



   Cartesian axes

     site n.     atom                  positions (alat units)
         1        C      tau(   1) = (   0.0000000   0.0000000   0.0000000  )
         2        C      tau(   2) = (   0.0000000   0.5773503   0.0000000  )

     number of k points=    10  Gaussian smearing, width (Ry)=  0.0100
                       cart. coord. in units 2pi/alat
        k(    1) = (   0.0000000   0.0000000   0.0000000), wk =   0.0312500
        k(    2) = (   0.0000000   0.1443376   0.0000000), wk =   0.1875000
        k(    3) = (   0.0000000   0.2886751   0.0000000), wk =   0.1875000
        k(    4) = (   0.0000000   0.4330127   0.0000000), wk =   0.1875000
        k(    5) = (   0.0000000  -0.5773503   0.0000000), wk =   0.0937500
        k(    6) = (   0.1250000   0.2165064   0.0000000), wk =   0.1875000
        k(    7) = (   0.1250000   0.3608439   0.0000000), wk =   0.3750000
        k(    8) = (   0.1250000   0.5051815   0.0000000), wk =   0.3750000
        k(    9) = (   0.2500000   0.4330127   0.0000000), wk =   0.1875000
        k(   10) = (   0.2500000   0.5773503   0.0000000), wk =   0.1875000

     Dense  grid:    82267 G-vectors     FFT dimensions: (  36,  36, 192)

     Smooth grid:    20639 G-vectors     FFT dimensions: (  24,  24, 120)

     Estimated max dynamical RAM per process >     111.93 MB

     Initial potential from superposition of free atoms

     starting charge       7.9999, renormalised to       8.0000

     negative rho (up, down):  9.733E-06 0.000E+00
     Starting wfcs are    8 randomized atomic wfcs

     total cpu time spent up to now is        1.8 secs

     Self-consistent Calculation

     iteration #  1     ecut=    45.00 Ry     beta= 0.70
     Davidson diagonalization with overlap
     ethr =  1.00E-02,  avg # of iterations =  5.5

     negative rho (up, down):  2.411E-05 0.000E+00

     total cpu time spent up to now is        2.7 secs

     total energy              =     -36.85441300 Ry
     estimated scf accuracy    <       0.21252318 Ry

     iteration #  2     ecut=    45.00 Ry     beta= 0.70
     Davidson diagonalization with overlap
     ethr =  2.66E-03,  avg # of iterations =  3.0

     negative rho (up, down):  3.469E-05 0.000E+00

     total cpu time spent up to now is        3.4 secs

     total energy              =     -36.88561855 Ry
     estimated scf accuracy    <       0.00222472 Ry

     iteration #  3     ecut=    45.00 Ry     beta= 0.70
     Davidson diagonalization with overlap
     ethr =  2.78E-05,  avg # of iterations =  9.2

     negative rho (up, down):  4.276E-05 0.000E+00

     total cpu time spent up to now is        4.4 secs

     total energy              =     -36.88587605 Ry
     estimated scf accuracy    <       0.00016317 Ry

     iteration #  4     ecut=    45.00 Ry     beta= 0.70
     Davidson diagonalization with overlap
     ethr =  2.04E-06,  avg # of iterations =  2.8

     negative rho (up, down):  4.374E-05 0.000E+00

     total cpu time spent up to now is        5.1 secs

     total energy              =     -36.88588596 Ry
     estimated scf accuracy    <       0.00000102 Ry

     iteration #  5     ecut=    45.00 Ry     beta= 0.70
     Davidson diagonalization with overlap
     ethr =  1.28E-08,  avg # of iterations =  3.0

     negative rho (up, down):  4.387E-05 0.000E+00

     total cpu time spent up to now is        5.8 secs

     total energy              =     -36.88588689 Ry
     estimated scf accuracy    <       0.00000003 Ry

     iteration #  6     ecut=    45.00 Ry     beta= 0.70
     Davidson diagonalization with overlap
     ethr =  3.19E-10,  avg # of iterations =  2.3

     negative rho (up, down):  4.392E-05 0.000E+00

     total cpu time spent up to now is        6.4 secs

     End of self-consistent calculation

          k = 0.0000 0.0000 0.0000 (  2579 PWs)   bands (ev):

   -21.3069  -9.3627  -4.5785  -4.5785   1.5931   2.5022   2.9278   4.9441

          k = 0.0000 0.1443 0.0000 (  2569 PWs)   bands (ev):

   -20.9318  -8.9122  -5.9775  -5.3036   2.1051   3.0183   3.4479   5.4557

          k = 0.0000 0.2887 0.0000 (  2593 PWs)   bands (ev):

   -19.8163  -9.0295  -7.5909  -6.6496   3.6388   4.5462   5.0072   5.9163

          k = 0.0000 0.4330 0.0000 (  2598 PWs)   bands (ev):

   -17.9966 -12.3641  -7.6836  -5.5581   2.3383   6.1153   6.4037   7.1424

          k = 0.0000-0.5774 0.0000 (  2576 PWs)   bands (ev):

   -15.9298 -14.9804  -8.0552  -3.9576   0.1571   6.1459   9.6268   9.7719

          k = 0.1250 0.2165 0.0000 (  2591 PWs)   bands (ev):

   -20.1867  -8.0247  -7.7994  -6.7486   3.1293   4.0467   4.4888   6.9128

          k = 0.1250 0.3608 0.0000 (  2598 PWs)   bands (ev):

   -18.7184 -10.6344  -8.3000  -6.3216   3.8002   5.1695   6.0943   6.5678

          k = 0.1250 0.5052 0.0000 (  2613 PWs)   bands (ev):

   -16.6072 -13.6959  -9.0814  -4.1711   0.7399   7.7278   8.2208   9.0554

          k = 0.2500 0.4330 0.0000 (  2617 PWs)   bands (ev):

   -16.9452 -12.1503 -10.6603  -4.3525   1.3553   7.6901   8.4209   9.1613

          k = 0.2500 0.5774 0.0000 (  2649 PWs)   bands (ev):

   -14.9748 -14.1401 -11.4520  -2.5857  -0.5674   9.4393  10.8653  10.8778

     the Fermi energy is    -1.9422 ev

!    total energy              =     -36.88588690 Ry
     total all-electron energy =      -152.414083 Ry
     estimated scf accuracy    <          6.8E-10 Ry
     smearing contrib. (-TS)   =      -0.00000000 Ry
     internal energy E=F+TS    =     -36.88588690 Ry

     The total energy is F=E-TS. E is the sum of the following terms:
     one-electron contribution =    -155.23652621 Ry
     hartree contribution      =      79.28706689 Ry
     xc contribution           =      -9.31861037 Ry
     ewald contribution        =      60.71783306 Ry
     one-center paw contrib.   =     -12.33565027 Ry

     convergence has been achieved in   6 iterations

     Writing all to output data dir ./tmp/graphene.save/ :
     XML data file, charge density, pseudopotentials, collected wavefunctions

     init_run     :      1.72s CPU      1.63s WALL (       1 calls)
     electrons    :      7.66s CPU      4.68s WALL (       1 calls)

     Called by init_run:
     wfcinit      :      0.52s CPU      0.39s WALL (       1 calls)
     potinit      :      0.55s CPU      0.57s WALL (       1 calls)
     hinit0       :      0.58s CPU      0.58s WALL (       1 calls)

     Called by electrons:
     c_bands      :      4.66s CPU      2.53s WALL (       6 calls)
     sum_band     :      1.52s CPU      0.80s WALL (       6 calls)
     v_of_rho     :      0.79s CPU      0.65s WALL (       7 calls)
     newd         :      0.26s CPU      0.35s WALL (       7 calls)
     PAW_pot      :      0.46s CPU      0.46s WALL (       7 calls)
     mix_rho      :      0.09s CPU      0.05s WALL (       6 calls)

     Called by c_bands:
     init_us_2    :      0.12s CPU      0.07s WALL (     130 calls)
     cegterg      :      4.48s CPU      2.43s WALL (      60 calls)

     Called by *egterg:
     cdiaghg      :      0.09s CPU      0.04s WALL (     318 calls)
     h_psi        :      4.40s CPU      2.53s WALL (     328 calls)
     s_psi        :      0.06s CPU      0.03s WALL (     328 calls)
     g_psi        :      0.04s CPU      0.01s WALL (     258 calls)

     Called by h_psi:
     h_psi:calbec :      0.09s CPU      0.04s WALL (     328 calls)
     vloc_psi     :      4.17s CPU      2.39s WALL (     328 calls)
     add_vuspsi   :      0.11s CPU      0.08s WALL (     328 calls)

     General routines
     calbec       :      0.11s CPU      0.05s WALL (     388 calls)
     fft          :      0.75s CPU      0.67s WALL (      89 calls)
     ffts         :      0.41s CPU      0.40s WALL (      13 calls)
     fftw         :      3.56s CPU      2.12s WALL (    3560 calls)
     interpolate  :      0.42s CPU      0.42s WALL (       7 calls)


     PWSCF        :      9.58s CPU      6.46s WALL


   This run was terminated on:  17:12:44   9Sep2025            

=------------------------------------------------------------------------------=
   JOB DONE.
=------------------------------------------------------------------------------=
