
     Program PWSCF v.7.4.1 starts on  9Sep2025 at 17:14:10 

     This program is part of the open-source Quantum ESPRESSO suite
     for quantum simulation of materials; please cite
         "P. Giannozzi et al., J. Phys.:Condens. Matter 21 395502 (2009);
         "P. Giannozzi et al., J. Phys.:Condens. Matter 29 465901 (2017);
         "P. Giannozzi et al., J. Chem. Phys. 152 154105 (2020);
          URL http://www.quantum-espresso.org", 
     in publications or presentations arising from this work. More details at
     http://www.quantum-espresso.org/quote

     Serial version
     21730 MiB available memory on the printing compute node when the environment starts

     Waiting for input...
     Reading input from standard input

     Current dimensions of program PWSCF are:
     Max number of different atomic species (ntypx) = 10
     Max number of k-points (npk) =  40000
     Max angular momentum in pseudopotentials (lmaxx) =  4
     file C.pbe-n-kjpaw_psl.1.0.0.UPF: wavefunction(s)  2S 2P renormalized


     G-vector sticks info
     --------------------
     sticks:   dense  smooth     PW     G-vecs:    dense   smooth      PW
     Sum         661     253     85                82267    20639    3847

     Using Slab Decomposition



     bravais-lattice index     =            4
     lattice parameter (alat)  =       4.6140  a.u.
     unit-cell volume          =     510.4047 (a.u.)^3
     number of atoms/cell      =            2
     number of atomic types    =            1
     number of electrons       =         8.00
     number of Kohn-Sham states=            8
     kinetic-energy cutoff     =      45.0000  Ry
     charge density cutoff     =     450.0000  Ry
     scf convergence threshold =      1.0E-08
     mixing beta               =       0.7000
     number of iterations used =            8  plain     mixing
     Exchange-correlation= SLA  PW   PBX  PBC
                           (   1   4   3   4   0   0   0)

     celldm(1)=   4.614000  celldm(2)=   0.000000  celldm(3)=   6.000000
     celldm(4)=   0.000000  celldm(5)=   0.000000  celldm(6)=   0.000000

     crystal axes: (cart. coord. in units of alat)
               a(1) = (   1.000000   0.000000   0.000000 )  
               a(2) = (  -0.500000   0.866025   0.000000 )  
               a(3) = (   0.000000   0.000000   6.000000 )  

     reciprocal axes: (cart. coord. in units 2 pi/alat)
               b(1) = (  1.000000  0.577350 -0.000000 )  
               b(2) = (  0.000000  1.154701  0.000000 )  
               b(3) = (  0.000000 -0.000000  0.166667 )  


     PseudoPot. # 1 for C  read from file:
     ../../../../../pseudos/C.pbe-n-kjpaw_psl.1.0.0.UPF
     MD5 check sum: 5d2aebdfa2cae82b50a7e79e9516da0f
     Pseudo is Projector augmented-wave + core cor, Zval =  4.0
     Generated using "atomic" code by A. Dal Corso  v.5.1
     Shape of augmentation charge: PSQ
     Using radial grid of 1073 points,  4 beta functions with: 
                l(1) =   0
                l(2) =   0
                l(3) =   1
                l(4) =   1
     Q(r) pseudized with 0 coefficients 


     atomic species   valence    mass     pseudopotential
     C                 4.00    12.01070     C ( 1.00)

     24 Sym. Ops., with inversion, found (12 have fractional translation)



   Cartesian axes

     site n.     atom                  positions (alat units)
         1        C      tau(   1) = (   0.0000000   0.0000000   0.0000000  )
         2        C      tau(   2) = (   0.0000000   0.5773503   0.0000000  )

     number of k points=    27  Gaussian smearing, width (Ry)=  0.0100
                       cart. coord. in units 2pi/alat
        k(    1) = (   0.0000000   0.0000000   0.0000000), wk =   0.0088889
        k(    2) = (   0.0000000   0.0769800   0.0000000), wk =   0.0533333
        k(    3) = (   0.0000000   0.1539601   0.0000000), wk =   0.0533333
        k(    4) = (   0.0000000   0.2309401   0.0000000), wk =   0.0533333
        k(    5) = (   0.0000000   0.3079201   0.0000000), wk =   0.0533333
        k(    6) = (   0.0000000   0.3849002   0.0000000), wk =   0.0533333
        k(    7) = (   0.0000000   0.4618802   0.0000000), wk =   0.0533333
        k(    8) = (   0.0000000   0.5388603   0.0000000), wk =   0.0533333
        k(    9) = (   0.0666667   0.1154701   0.0000000), wk =   0.0533333
        k(   10) = (   0.0666667   0.1924501   0.0000000), wk =   0.1066667
        k(   11) = (   0.0666667   0.2694301   0.0000000), wk =   0.1066667
        k(   12) = (   0.0666667   0.3464102   0.0000000), wk =   0.1066667
        k(   13) = (   0.0666667   0.4233902   0.0000000), wk =   0.1066667
        k(   14) = (   0.0666667   0.5003702   0.0000000), wk =   0.1066667
        k(   15) = (   0.0666667   0.5773503   0.0000000), wk =   0.0533333
        k(   16) = (   0.1333333   0.2309401   0.0000000), wk =   0.0533333
        k(   17) = (   0.1333333   0.3079201   0.0000000), wk =   0.1066667
        k(   18) = (   0.1333333   0.3849002   0.0000000), wk =   0.1066667
        k(   19) = (   0.1333333   0.4618802   0.0000000), wk =   0.1066667
        k(   20) = (   0.1333333   0.5388603   0.0000000), wk =   0.1066667
        k(   21) = (   0.2000000   0.3464102   0.0000000), wk =   0.0533333
        k(   22) = (   0.2000000   0.4233902   0.0000000), wk =   0.1066667
        k(   23) = (   0.2000000   0.5003702   0.0000000), wk =   0.1066667
        k(   24) = (   0.2000000   0.5773503   0.0000000), wk =   0.0533333
        k(   25) = (   0.2666667   0.4618802   0.0000000), wk =   0.0533333
        k(   26) = (   0.2666667   0.5388603   0.0000000), wk =   0.1066667
        k(   27) = (   0.3333333   0.5773503   0.0000000), wk =   0.0177778

     Dense  grid:    82267 G-vectors     FFT dimensions: (  36,  36, 192)

     Smooth grid:    20639 G-vectors     FFT dimensions: (  24,  24, 120)

     Estimated max dynamical RAM per process >     117.33 MB

     Initial potential from superposition of free atoms

     starting charge       7.9999, renormalised to       8.0000

     negative rho (up, down):  9.733E-06 0.000E+00
     Starting wfcs are    8 randomized atomic wfcs

     total cpu time spent up to now is        2.0 secs

     Self-consistent Calculation

     iteration #  1     ecut=    45.00 Ry     beta= 0.70
     Davidson diagonalization with overlap
     ethr =  1.00E-02,  avg # of iterations =  5.5

     negative rho (up, down):  2.405E-05 0.000E+00

     total cpu time spent up to now is        3.9 secs

     total energy              =     -36.85449183 Ry
     estimated scf accuracy    <       0.21210087 Ry

     iteration #  2     ecut=    45.00 Ry     beta= 0.70
     Davidson diagonalization with overlap
     ethr =  2.65E-03,  avg # of iterations =  3.2

     negative rho (up, down):  3.520E-05 0.000E+00

     total cpu time spent up to now is        5.3 secs

     total energy              =     -36.88548926 Ry
     estimated scf accuracy    <       0.00219113 Ry

     iteration #  3     ecut=    45.00 Ry     beta= 0.70
     Davidson diagonalization with overlap
     c_bands:  1 eigenvalues not converged
     ethr =  2.74E-05,  avg # of iterations = 10.2

     negative rho (up, down):  4.282E-05 0.000E+00

     total cpu time spent up to now is        7.8 secs

     total energy              =     -36.88574367 Ry
     estimated scf accuracy    <       0.00016281 Ry

     iteration #  4     ecut=    45.00 Ry     beta= 0.70
     Davidson diagonalization with overlap
     ethr =  2.04E-06,  avg # of iterations =  3.8

     negative rho (up, down):  4.372E-05 0.000E+00

     total cpu time spent up to now is        9.5 secs

     total energy              =     -36.88575386 Ry
     estimated scf accuracy    <       0.00000133 Ry

     iteration #  5     ecut=    45.00 Ry     beta= 0.70
     Davidson diagonalization with overlap
     ethr =  1.66E-08,  avg # of iterations =  3.0

     negative rho (up, down):  4.386E-05 0.000E+00

     total cpu time spent up to now is       11.3 secs

     total energy              =     -36.88575468 Ry
     estimated scf accuracy    <       0.00000003 Ry

     iteration #  6     ecut=    45.00 Ry     beta= 0.70
     Davidson diagonalization with overlap
     ethr =  3.25E-10,  avg # of iterations =  2.6

     negative rho (up, down):  4.391E-05 0.000E+00

     total cpu time spent up to now is       12.9 secs

     End of self-consistent calculation

          k = 0.0000 0.0000 0.0000 (  2579 PWs)   bands (ev):

   -21.3084  -9.3641  -4.5802  -4.5802   1.5929   2.5022   2.9280   4.9442

          k = 0.0000 0.0770 0.0000 (  2553 PWs)   bands (ev):

   -21.2016  -9.2355  -5.0093  -4.8095   1.7385   2.6491   3.0759   5.0899

          k = 0.0000 0.1540 0.0000 (  2577 PWs)   bands (ev):

   -20.8818  -8.8518  -6.1512  -5.3899   2.1754   3.0892   3.5197   5.5260

          k = 0.0000 0.2309 0.0000 (  2597 PWs)   bands (ev):

   -20.3515  -8.2201  -7.7204  -6.1147   2.9031   3.8198   4.2593   6.2425

          k = 0.0000 0.3079 0.0000 (  2582 PWs)   bands (ev):

   -19.6146  -9.4788  -7.3557  -6.8192   3.9196   4.7990   5.2931   5.4786

          k = 0.0000 0.3849 0.0000 (  2604 PWs)   bands (ev):

   -18.6785 -11.2723  -7.4048  -6.2918   3.4912   5.2177   6.1838   6.4371

          k = 0.0000 0.4619 0.0000 (  2612 PWs)   bands (ev):

   -17.5581 -13.0013  -7.8177  -5.1163   1.6892   6.2386   6.8449   7.7707

          k = 0.0000 0.5389 0.0000 (  2602 PWs)   bands (ev):

   -16.3217 -14.5520  -8.0301  -4.1304   0.3696   6.1567   8.6782   9.6235

          k = 0.0667 0.1155 0.0000 (  2555 PWs)   bands (ev):

   -20.9883  -8.9794  -5.7415  -5.2682   2.0299   2.9427   3.3718   5.3809

          k = 0.0667 0.1925 0.0000 (  2577 PWs)   bands (ev):

   -20.5633  -8.4714  -7.0055  -6.0140   2.6125   3.5284   3.9637   5.9605

          k = 0.0667 0.2694 0.0000 (  2585 PWs)   bands (ev):

   -19.9297  -8.6101  -7.7221  -6.7889   3.4852   4.4000   4.8513   6.2224

          k = 0.0667 0.3464 0.0000 (  2588 PWs)   bands (ev):

   -19.0931 -10.3554  -7.4646  -6.7536   4.3568   4.6450   5.6023   6.0316

          k = 0.0667 0.4234 0.0000 (  2600 PWs)   bands (ev):

   -18.0639 -12.1026  -7.9783  -5.6173   2.5177   6.0778   6.8382   7.0378

          k = 0.0667 0.5004 0.0000 (  2604 PWs)   bands (ev):

   -16.8690 -13.7520  -8.2971  -4.4685   0.9027   6.6636   7.8301   8.7514

          k = 0.0667 0.5774 0.0000 (  2620 PWs)   bands (ev):

   -15.8634 -14.9128  -8.4050  -3.8607   0.1330   6.6174   9.7220   9.8728

          k = 0.1333 0.2309 0.0000 (  2595 PWs)   bands (ev):

   -20.0350  -8.1149  -7.8451  -7.0018   3.3406   4.2583   4.7040   6.5412

          k = 0.1333 0.3079 0.0000 (  2589 PWs)   bands (ev):

   -19.3017  -9.5286  -7.9270  -6.9878   4.3576   4.9252   5.2894   5.7397

          k = 0.1333 0.3849 0.0000 (  2601 PWs)   bands (ev):

   -18.3715 -11.1471  -8.6119  -5.9310   3.2097   5.6589   6.5771   7.0681

          k = 0.1333 0.4619 0.0000 (  2613 PWs)   bands (ev):

   -17.2606 -12.7892  -9.0634  -4.7556   1.5310   7.2300   8.0205   8.1300

          k = 0.1333 0.5389 0.0000 (  2625 PWs)   bands (ev):

   -16.0405 -14.2928  -9.2890  -3.7471   0.2520   7.8997   9.0891   9.8281

          k = 0.2000 0.3464 0.0000 (  2587 PWs)   bands (ev):

   -18.4746 -10.5468  -9.1307  -6.0376   3.4954   5.5159   6.4150   6.9229

          k = 0.2000 0.4234 0.0000 (  2626 PWs)   bands (ev):

   -17.4608 -11.8527  -9.9636  -4.9155   1.9765   6.9523   7.7934   8.3978

          k = 0.2000 0.5004 0.0000 (  2628 PWs)   bands (ev):

   -16.2916 -13.3124 -10.3922  -3.7472   0.5461   8.6447   9.2241   9.6954

          k = 0.2000 0.5774 0.0000 (  2625 PWs)   bands (ev):

   -15.3197 -14.3975 -10.5254  -3.0782  -0.2151   9.6239   9.8706  10.4501

          k = 0.2667 0.4619 0.0000 (  2631 PWs)   bands (ev):

   -16.3833 -12.6311 -11.1244  -3.7614   0.6993   8.5059   8.9811  10.0130

          k = 0.2667 0.5389 0.0000 (  2637 PWs)   bands (ev):

   -15.2155 -13.7058 -11.6740  -2.6508  -0.4670   9.3277  10.2482  11.3565

          k = 0.3333 0.5774 0.0000 (  2631 PWs)   bands (ev):

   -14.2370 -14.2370 -12.3314  -1.5376  -1.5376   9.1229  11.5394  11.5397

     the Fermi energy is    -1.5376 ev

!    total energy              =     -36.88575469 Ry
     total all-electron energy =      -152.413950 Ry
     estimated scf accuracy    <          4.3E-10 Ry
     smearing contrib. (-TS)   =      -0.00010030 Ry
     internal energy E=F+TS    =     -36.88565439 Ry

     The total energy is F=E-TS. E is the sum of the following terms:
     one-electron contribution =    -155.23554909 Ry
     hartree contribution      =      79.28618893 Ry
     xc contribution           =      -9.31846975 Ry
     ewald contribution        =      60.71783306 Ry
     one-center paw contrib.   =     -12.33565754 Ry

     convergence has been achieved in   6 iterations

     Writing all to output data dir ./tmp/graphene.save/ :
     XML data file, charge density, pseudopotentials, collected wavefunctions

     init_run     :      2.18s CPU      1.89s WALL (       1 calls)
     electrons    :     18.40s CPU     10.86s WALL (       1 calls)

     Called by init_run:
     wfcinit      :      0.99s CPU      0.65s WALL (       1 calls)
     potinit      :      0.55s CPU      0.57s WALL (       1 calls)
     hinit0       :      0.57s CPU      0.58s WALL (       1 calls)

     Called by electrons:
     c_bands      :     14.51s CPU      7.93s WALL (       6 calls)
     sum_band     :      2.28s CPU      1.39s WALL (       6 calls)
     v_of_rho     :      0.77s CPU      0.69s WALL (       7 calls)
     newd         :      0.31s CPU      0.41s WALL (       7 calls)
     PAW_pot      :      0.53s CPU      0.54s WALL (       7 calls)
     mix_rho      :      0.11s CPU      0.06s WALL (       6 calls)

     Called by c_bands:
     init_us_2    :      0.36s CPU      0.20s WALL (     351 calls)
     cegterg      :     13.98s CPU      7.65s WALL (     162 calls)

     Called by *egterg:
     cdiaghg      :      0.30s CPU      0.13s WALL (     925 calls)
     h_psi        :     13.17s CPU      7.42s WALL (     952 calls)
     s_psi        :      0.14s CPU      0.09s WALL (     952 calls)
     g_psi        :      0.10s CPU      0.04s WALL (     763 calls)

     Called by h_psi:
     h_psi:calbec :      0.27s CPU      0.13s WALL (     952 calls)
     vloc_psi     :     12.52s CPU      7.03s WALL (     952 calls)
     add_vuspsi   :      0.31s CPU      0.24s WALL (     952 calls)

     General routines
     calbec       :      0.30s CPU      0.15s WALL (    1114 calls)
     fft          :      0.75s CPU      0.68s WALL (      89 calls)
     ffts         :      0.40s CPU      0.40s WALL (      13 calls)
     fftw         :     10.10s CPU      5.99s WALL (    9754 calls)
     interpolate  :      0.42s CPU      0.42s WALL (       7 calls)


     PWSCF        :     20.81s CPU     12.91s WALL


   This run was terminated on:  17:14:23   9Sep2025            

=------------------------------------------------------------------------------=
   JOB DONE.
=------------------------------------------------------------------------------=
