
     Program PWSCF v.7.4.1 starts on  9Sep2025 at  8:42:25 

     This program is part of the open-source Quantum ESPRESSO suite
     for quantum simulation of materials; please cite
         "P. Giannozzi et al., J. Phys.:Condens. Matter 21 395502 (2009);
         "P. Giannozzi et al., J. Phys.:Condens. Matter 29 465901 (2017);
         "P. Giannozzi et al., J. Chem. Phys. 152 154105 (2020);
          URL http://www.quantum-espresso.org", 
     in publications or presentations arising from this work. More details at
     http://www.quantum-espresso.org/quote

     Serial version
     7639 MiB available memory on the printing compute node when the environment starts

     Waiting for input...
     Reading input from standard input

     Current dimensions of program PWSCF are:
     Max number of different atomic species (ntypx) = 10
     Max number of k-points (npk) =  40000
     Max angular momentum in pseudopotentials (lmaxx) =  4
     file C.pbe-n-kjpaw_psl.1.0.0.UPF: wavefunction(s)  2S 2P renormalized


     G-vector sticks info
     --------------------
     sticks:   dense  smooth     PW     G-vecs:    dense   smooth      PW
     Sum        1039     421    121               159899    40503    6885

     Using Slab Decomposition



     bravais-lattice index     =            4
     lattice parameter (alat)  =       4.6140  a.u.
     unit-cell volume          =     510.4047 (a.u.)^3
     number of atoms/cell      =            2
     number of atomic types    =            1
     number of electrons       =         8.00
     number of Kohn-Sham states=            8
     kinetic-energy cutoff     =      70.0000  Ry
     charge density cutoff     =     700.0000  Ry
     scf convergence threshold =      1.0E-08
     mixing beta               =       0.7000
     number of iterations used =            8  plain     mixing
     Exchange-correlation= SLA  PW   PBX  PBC
                           (   1   4   3   4   0   0   0)

     celldm(1)=   4.614000  celldm(2)=   0.000000  celldm(3)=   6.000000
     celldm(4)=   0.000000  celldm(5)=   0.000000  celldm(6)=   0.000000

     crystal axes: (cart. coord. in units of alat)
               a(1) = (   1.000000   0.000000   0.000000 )  
               a(2) = (  -0.500000   0.866025   0.000000 )  
               a(3) = (   0.000000   0.000000   6.000000 )  

     reciprocal axes: (cart. coord. in units 2 pi/alat)
               b(1) = (  1.000000  0.577350 -0.000000 )  
               b(2) = (  0.000000  1.154701  0.000000 )  
               b(3) = (  0.000000 -0.000000  0.166667 )  


     PseudoPot. # 1 for C  read from file:
     ../../../../../pseudos/C.pbe-n-kjpaw_psl.1.0.0.UPF
     MD5 check sum: 5d2aebdfa2cae82b50a7e79e9516da0f
     Pseudo is Projector augmented-wave + core cor, Zval =  4.0
     Generated using "atomic" code by A. Dal Corso  v.5.1
     Shape of augmentation charge: PSQ
     Using radial grid of 1073 points,  4 beta functions with: 
                l(1) =   0
                l(2) =   0
                l(3) =   1
                l(4) =   1
     Q(r) pseudized with 0 coefficients 


     atomic species   valence    mass     pseudopotential
     C                 4.00    12.01070     C ( 1.00)

     24 Sym. Ops., with inversion, found (12 have fractional translation)



   Cartesian axes

     site n.     atom                  positions (alat units)
         1        C      tau(   1) = (   0.0000000   0.0000000   0.0000000  )
         2        C      tau(   2) = (   0.0000000   0.5773503   0.0000000  )

     number of k points=    12  Gaussian smearing, width (Ry)=  0.0100
                       cart. coord. in units 2pi/alat
        k(    1) = (   0.0000000   0.0000000   0.0000000), wk =   0.0246914
        k(    2) = (   0.0000000   0.1283001   0.0000000), wk =   0.1481481
        k(    3) = (   0.0000000   0.2566001   0.0000000), wk =   0.1481481
        k(    4) = (   0.0000000   0.3849002   0.0000000), wk =   0.1481481
        k(    5) = (   0.0000000   0.5132002   0.0000000), wk =   0.1481481
        k(    6) = (   0.1111111   0.1924501   0.0000000), wk =   0.1481481
        k(    7) = (   0.1111111   0.3207501   0.0000000), wk =   0.2962963
        k(    8) = (   0.1111111   0.4490502   0.0000000), wk =   0.2962963
        k(    9) = (   0.1111111   0.5773503   0.0000000), wk =   0.1481481
        k(   10) = (   0.2222222   0.3849002   0.0000000), wk =   0.1481481
        k(   11) = (   0.2222222   0.5132002   0.0000000), wk =   0.2962963
        k(   12) = (   0.3333333   0.5773503   0.0000000), wk =   0.0493827

     Dense  grid:   159899 G-vectors     FFT dimensions: (  45,  45, 240)

     Smooth grid:    40503 G-vectors     FFT dimensions: (  27,  27, 150)

     Estimated max dynamical RAM per process >     218.59 MB

     Initial potential from superposition of free atoms

     starting charge       7.9999, renormalised to       8.0000

     negative rho (up, down):  2.062E-05 0.000E+00
     Starting wfcs are    8 randomized atomic wfcs

     total cpu time spent up to now is        5.0 secs

     Self-consistent Calculation

     iteration #  1     ecut=    70.00 Ry     beta= 0.70
     Davidson diagonalization with overlap
     ethr =  1.00E-02,  avg # of iterations =  5.9

     negative rho (up, down):  2.018E-05 0.000E+00

     total cpu time spent up to now is       10.6 secs

     total energy              =     -36.85635861 Ry
     estimated scf accuracy    <       0.20841325 Ry

     iteration #  2     ecut=    70.00 Ry     beta= 0.70
     Davidson diagonalization with overlap
     ethr =  2.61E-03,  avg # of iterations =  4.2

     negative rho (up, down):  2.722E-05 0.000E+00

     total cpu time spent up to now is       15.6 secs

     total energy              =     -36.88543728 Ry
     estimated scf accuracy    <       0.00201246 Ry

     iteration #  3     ecut=    70.00 Ry     beta= 0.70
     Davidson diagonalization with overlap
     ethr =  2.52E-05,  avg # of iterations =  9.8

     negative rho (up, down):  3.413E-05 0.000E+00

     total cpu time spent up to now is       20.5 secs

     total energy              =     -36.88575875 Ry
     estimated scf accuracy    <       0.00015892 Ry

     iteration #  4     ecut=    70.00 Ry     beta= 0.70
     Davidson diagonalization with overlap
     ethr =  1.99E-06,  avg # of iterations =  4.3

     negative rho (up, down):  3.479E-05 0.000E+00

     total cpu time spent up to now is       26.4 secs

     total energy              =     -36.88577213 Ry
     estimated scf accuracy    <       0.00000227 Ry

     iteration #  5     ecut=    70.00 Ry     beta= 0.70
     Davidson diagonalization with overlap
     ethr =  2.83E-08,  avg # of iterations =  2.8

     negative rho (up, down):  3.484E-05 0.000E+00

     total cpu time spent up to now is       31.2 secs

     total energy              =     -36.88577323 Ry
     estimated scf accuracy    <       0.00000006 Ry

     iteration #  6     ecut=    70.00 Ry     beta= 0.70
     Davidson diagonalization with overlap
     ethr =  7.29E-10,  avg # of iterations =  2.9

     negative rho (up, down):  3.485E-05 0.000E+00

     total cpu time spent up to now is       34.1 secs

     End of self-consistent calculation

          k = 0.0000 0.0000 0.0000 (  5029 PWs)   bands (ev):

   -21.3084  -9.3650  -4.5801  -4.5801   1.6026   2.5191   2.9727   4.9789

          k = 0.0000 0.1283 0.0000 (  5029 PWs)   bands (ev):

   -21.0121  -9.0087  -5.7090  -5.1702   2.0069   2.9268   3.3838   5.3833

          k = 0.0000 0.2566 0.0000 (  5021 PWs)   bands (ev):

   -20.1288  -8.2949  -7.9575  -6.3578   3.2189   4.1421   4.6165   6.5072

          k = 0.0000 0.3849 0.0000 (  5046 PWs)   bands (ev):

   -18.6791 -11.2728  -7.4049  -6.2925   3.4911   5.2255   6.1996   6.4435

          k = 0.0000 0.5132 0.0000 (  5072 PWs)   bands (ev):

   -16.7328 -14.0718  -7.9827  -4.3985   0.7121   6.1773   8.0410   8.9932

          k = 0.1111 0.1925 0.0000 (  5026 PWs)   bands (ev):

   -20.4223  -8.3042  -7.2815  -6.3480   2.8159   3.7399   4.2063   6.1884

          k = 0.1111 0.3208 0.0000 (  5038 PWs)   bands (ev):

   -19.2558  -9.7687  -7.7635  -6.9363   4.4299   4.7833   5.3809   5.8503

          k = 0.1111 0.4491 0.0000 (  5053 PWs)   bands (ev):

   -17.5488 -12.5787  -8.6611  -5.0620   1.8589   6.8215   7.5550   7.7589

          k = 0.1111 0.5774 0.0000 (  5058 PWs)   bands (ev):

   -15.7427 -14.7928  -8.9668  -3.6866   0.0807   7.3944   9.8942  10.0575

          k = 0.2222 0.3849 0.0000 (  5054 PWs)   bands (ev):

   -17.8302 -11.2899  -9.8320  -5.3149   2.5149   6.4350   7.3069   7.9039

          k = 0.2222 0.5132 0.0000 (  5068 PWs)   bands (ev):

   -15.9403 -13.4535 -10.8423  -3.3885   0.2133   9.1708   9.4071  10.2922

          k = 0.3333 0.5774 0.0000 (  5040 PWs)   bands (ev):

   -14.2374 -14.2374 -12.3325  -1.5379  -1.5379   9.1218  11.5404  11.5406

     the Fermi energy is    -1.5379 ev

!    total energy              =     -36.88577325 Ry
     total all-electron energy =      -152.413969 Ry
     estimated scf accuracy    <          4.8E-10 Ry
     smearing contrib. (-TS)   =      -0.00027861 Ry
     internal energy E=F+TS    =     -36.88549464 Ry

     The total energy is F=E-TS. E is the sum of the following terms:
     one-electron contribution =    -155.23459059 Ry
     hartree contribution      =      79.28651615 Ry
     xc contribution           =      -9.31922197 Ry
     ewald contribution        =      60.71783306 Ry
     one-center paw contrib.   =     -12.33603129 Ry

     convergence has been achieved in   6 iterations

     Writing all to output data dir ./tmp/graphene.save/ :
     XML data file, charge density, pseudopotentials, collected wavefunctions

     init_run     :      3.10s CPU      4.78s WALL (       1 calls)
     electrons    :     22.49s CPU     29.14s WALL (       1 calls)

     Called by init_run:
     wfcinit      :      1.03s CPU      1.33s WALL (       1 calls)
     potinit      :      0.69s CPU      1.03s WALL (       1 calls)
     hinit0       :      1.16s CPU      2.15s WALL (       1 calls)

     Called by electrons:
     c_bands      :     16.11s CPU     20.32s WALL (       6 calls)
     sum_band     :      2.81s CPU      2.82s WALL (       6 calls)
     v_of_rho     :      1.90s CPU      3.08s WALL (       7 calls)
     newd         :      0.93s CPU      1.92s WALL (       7 calls)
     PAW_pot      :      0.86s CPU      1.25s WALL (       7 calls)
     mix_rho      :      0.18s CPU      0.23s WALL (       6 calls)

     Called by c_bands:
     init_us_2    :      0.27s CPU      0.26s WALL (     156 calls)
     cegterg      :     15.74s CPU     20.01s WALL (      72 calls)

     Called by *egterg:
     cdiaghg      :      0.09s CPU      0.07s WALL (     432 calls)
     h_psi        :     15.08s CPU     19.18s WALL (     444 calls)
     s_psi        :      0.28s CPU      0.45s WALL (     444 calls)
     g_psi        :      0.05s CPU      0.04s WALL (     360 calls)

     Called by h_psi:
     h_psi:calbec :      0.31s CPU      0.69s WALL (     444 calls)
     vloc_psi     :     13.45s CPU     14.37s WALL (     444 calls)
     add_vuspsi   :      1.26s CPU      4.03s WALL (     444 calls)

     General routines
     calbec       :      0.34s CPU      0.72s WALL (     516 calls)
     fft          :      1.82s CPU      3.13s WALL (      89 calls)
     ffts         :      0.26s CPU      0.26s WALL (      13 calls)
     fftw         :      9.86s CPU     10.43s WALL (    4422 calls)
     interpolate  :      0.35s CPU      0.40s WALL (       7 calls)


     PWSCF        :     25.75s CPU     34.20s WALL


   This run was terminated on:   8:42:59   9Sep2025            

=------------------------------------------------------------------------------=
   JOB DONE.
=------------------------------------------------------------------------------=
