
     Program PWSCF v.7.4.1 starts on  9Sep2025 at  8:41:27 

     This program is part of the open-source Quantum ESPRESSO suite
     for quantum simulation of materials; please cite
         "P. Giannozzi et al., J. Phys.:Condens. Matter 21 395502 (2009);
         "P. Giannozzi et al., J. Phys.:Condens. Matter 29 465901 (2017);
         "P. Giannozzi et al., J. Chem. Phys. 152 154105 (2020);
          URL http://www.quantum-espresso.org", 
     in publications or presentations arising from this work. More details at
     http://www.quantum-espresso.org/quote

     Serial version
     8091 MiB available memory on the printing compute node when the environment starts

     Waiting for input...
     Reading input from standard input

     Current dimensions of program PWSCF are:
     Max number of different atomic species (ntypx) = 10
     Max number of k-points (npk) =  40000
     Max angular momentum in pseudopotentials (lmaxx) =  4
     file C.pbe-n-kjpaw_psl.1.0.0.UPF: wavefunction(s)  2S 2P renormalized


     G-vector sticks info
     --------------------
     sticks:   dense  smooth     PW     G-vecs:    dense   smooth      PW
     Sum         439     169     61                44823    11209    2253

     Using Slab Decomposition



     bravais-lattice index     =            4
     lattice parameter (alat)  =       4.6140  a.u.
     unit-cell volume          =     510.4047 (a.u.)^3
     number of atoms/cell      =            2
     number of atomic types    =            1
     number of electrons       =         8.00
     number of Kohn-Sham states=            8
     kinetic-energy cutoff     =      30.0000  Ry
     charge density cutoff     =     300.0000  Ry
     scf convergence threshold =      1.0E-08
     mixing beta               =       0.7000
     number of iterations used =            8  plain     mixing
     Exchange-correlation= SLA  PW   PBX  PBC
                           (   1   4   3   4   0   0   0)

     celldm(1)=   4.614000  celldm(2)=   0.000000  celldm(3)=   6.000000
     celldm(4)=   0.000000  celldm(5)=   0.000000  celldm(6)=   0.000000

     crystal axes: (cart. coord. in units of alat)
               a(1) = (   1.000000   0.000000   0.000000 )  
               a(2) = (  -0.500000   0.866025   0.000000 )  
               a(3) = (   0.000000   0.000000   6.000000 )  

     reciprocal axes: (cart. coord. in units 2 pi/alat)
               b(1) = (  1.000000  0.577350 -0.000000 )  
               b(2) = (  0.000000  1.154701  0.000000 )  
               b(3) = (  0.000000 -0.000000  0.166667 )  


     PseudoPot. # 1 for C  read from file:
     ../../../../../pseudos/C.pbe-n-kjpaw_psl.1.0.0.UPF
     MD5 check sum: 5d2aebdfa2cae82b50a7e79e9516da0f
     Pseudo is Projector augmented-wave + core cor, Zval =  4.0
     Generated using "atomic" code by A. Dal Corso  v.5.1
     Shape of augmentation charge: PSQ
     Using radial grid of 1073 points,  4 beta functions with: 
                l(1) =   0
                l(2) =   0
                l(3) =   1
                l(4) =   1
     Q(r) pseudized with 0 coefficients 


     atomic species   valence    mass     pseudopotential
     C                 4.00    12.01070     C ( 1.00)

     24 Sym. Ops., with inversion, found (12 have fractional translation)



   Cartesian axes

     site n.     atom                  positions (alat units)
         1        C      tau(   1) = (   0.0000000   0.0000000   0.0000000  )
         2        C      tau(   2) = (   0.0000000   0.5773503   0.0000000  )

     number of k points=    12  Gaussian smearing, width (Ry)=  0.0100
                       cart. coord. in units 2pi/alat
        k(    1) = (   0.0000000   0.0000000   0.0000000), wk =   0.0246914
        k(    2) = (   0.0000000   0.1283001   0.0000000), wk =   0.1481481
        k(    3) = (   0.0000000   0.2566001   0.0000000), wk =   0.1481481
        k(    4) = (   0.0000000   0.3849002   0.0000000), wk =   0.1481481
        k(    5) = (   0.0000000   0.5132002   0.0000000), wk =   0.1481481
        k(    6) = (   0.1111111   0.1924501   0.0000000), wk =   0.1481481
        k(    7) = (   0.1111111   0.3207501   0.0000000), wk =   0.2962963
        k(    8) = (   0.1111111   0.4490502   0.0000000), wk =   0.2962963
        k(    9) = (   0.1111111   0.5773503   0.0000000), wk =   0.1481481
        k(   10) = (   0.2222222   0.3849002   0.0000000), wk =   0.1481481
        k(   11) = (   0.2222222   0.5132002   0.0000000), wk =   0.2962963
        k(   12) = (   0.3333333   0.5773503   0.0000000), wk =   0.0493827

     Dense  grid:    44823 G-vectors     FFT dimensions: (  27,  27, 160)

     Smooth grid:    11209 G-vectors     FFT dimensions: (  18,  18, 100)

     Estimated max dynamical RAM per process >      60.16 MB

     Check: negative core charge=   -0.000003

     Initial potential from superposition of free atoms

     starting charge       7.9999, renormalised to       8.0000

     negative rho (up, down):  4.650E-05 0.000E+00
     Starting wfcs are    8 randomized atomic wfcs

     total cpu time spent up to now is        1.2 secs

     Self-consistent Calculation

     iteration #  1     ecut=    30.00 Ry     beta= 0.70
     Davidson diagonalization with overlap
     ethr =  1.00E-02,  avg # of iterations =  5.4

     negative rho (up, down):  1.350E-05 0.000E+00

     total cpu time spent up to now is        1.9 secs

     total energy              =     -36.83769451 Ry
     estimated scf accuracy    <       0.21111035 Ry

     iteration #  2     ecut=    30.00 Ry     beta= 0.70
     Davidson diagonalization with overlap
     ethr =  2.64E-03,  avg # of iterations =  3.9

     negative rho (up, down):  1.397E-05 0.000E+00

     total cpu time spent up to now is        2.4 secs

     total energy              =     -36.86954235 Ry
     estimated scf accuracy    <       0.00242624 Ry

     iteration #  3     ecut=    30.00 Ry     beta= 0.70
     Davidson diagonalization with overlap
     ethr =  3.03E-05,  avg # of iterations =  8.8

     negative rho (up, down):  4.967E-05 0.000E+00

     total cpu time spent up to now is        3.0 secs

     total energy              =     -36.86976130 Ry
     estimated scf accuracy    <       0.00016858 Ry

     iteration #  4     ecut=    30.00 Ry     beta= 0.70
     Davidson diagonalization with overlap
     ethr =  2.11E-06,  avg # of iterations =  5.1

     negative rho (up, down):  2.048E-05 0.000E+00

     total cpu time spent up to now is        3.5 secs

     total energy              =     -36.86976901 Ry
     estimated scf accuracy    <       0.00000053 Ry

     iteration #  5     ecut=    30.00 Ry     beta= 0.70
     Davidson diagonalization with overlap
     ethr =  6.67E-09,  avg # of iterations =  3.1

     negative rho (up, down):  1.548E-05 0.000E+00

     total cpu time spent up to now is        4.0 secs

     total energy              =     -36.86976958 Ry
     estimated scf accuracy    <       0.00000002 Ry

     iteration #  6     ecut=    30.00 Ry     beta= 0.70
     Davidson diagonalization with overlap
     ethr =  3.00E-10,  avg # of iterations =  2.0

     negative rho (up, down):  1.487E-05 0.000E+00

     total cpu time spent up to now is        4.4 secs

     End of self-consistent calculation

          k = 0.0000 0.0000 0.0000 (  1363 PWs)   bands (ev):

   -21.3363  -9.3612  -4.5524  -4.5524   1.5188   2.3825   2.6791   4.7498

          k = 0.0000 0.1283 0.0000 (  1367 PWs)   bands (ev):

   -21.0394  -9.0055  -5.6882  -5.1451   1.9247   2.7911   3.0892   5.1536

          k = 0.0000 0.2566 0.0000 (  1409 PWs)   bands (ev):

   -20.1551  -8.2963  -7.9539  -6.3402   3.1412   4.0109   4.3193   6.3193

          k = 0.0000 0.3849 0.0000 (  1415 PWs)   bands (ev):

   -18.7035 -11.2825  -7.3927  -6.2847   3.5113   5.1570   6.0728   6.3171

          k = 0.0000 0.5132 0.0000 (  1415 PWs)   bands (ev):

   -16.7556 -14.0862  -7.9711  -4.3892   0.7265   6.1638   7.9809   8.8815

          k = 0.1111 0.1925 0.0000 (  1414 PWs)   bands (ev):

   -20.4490  -8.3027  -7.2791  -6.3319   2.7365   3.6065   3.9099   5.9576

          k = 0.1111 0.3208 0.0000 (  1418 PWs)   bands (ev):

   -19.2810  -9.7748  -7.7527  -6.9316   4.3565   4.8052   5.2587   5.5503

          k = 0.1111 0.4491 0.0000 (  1437 PWs)   bands (ev):

   -17.5721 -12.5918  -8.6567  -5.0539   1.8743   6.7608   7.5379   7.6454

          k = 0.1111 0.5774 0.0000 (  1434 PWs)   bands (ev):

   -15.7666 -14.8042  -8.9631  -3.6769   0.0935   7.3871   9.8526  10.0037

          k = 0.2222 0.3849 0.0000 (  1418 PWs)   bands (ev):

   -17.8534 -11.3009  -9.8265  -5.3054   2.5360   6.3698   7.1980   7.5989

          k = 0.2222 0.5132 0.0000 (  1427 PWs)   bands (ev):

   -15.9615 -13.4676 -10.8414  -3.3759   0.2310   9.1225   9.3776  10.2787

          k = 0.3333 0.5774 0.0000 (  1410 PWs)   bands (ev):

   -14.2560 -14.2560 -12.3254  -1.5231  -1.5231   9.1139  11.5383  11.5384

     the Fermi energy is    -1.5231 ev

!    total energy              =     -36.86976959 Ry
     total all-electron energy =      -152.397965 Ry
     estimated scf accuracy    <          1.1E-09 Ry
     smearing contrib. (-TS)   =      -0.00027861 Ry
     internal energy E=F+TS    =     -36.86949098 Ry

     The total energy is F=E-TS. E is the sum of the following terms:
     one-electron contribution =    -155.20171038 Ry
     hartree contribution      =      79.26718458 Ry
     xc contribution           =      -9.31561114 Ry
     ewald contribution        =      60.71783306 Ry
     one-center paw contrib.   =     -12.33718710 Ry

     convergence has been achieved in   6 iterations

     Writing all to output data dir ./tmp/graphene.save/ :
     XML data file, charge density, pseudopotentials, collected wavefunctions

     init_run     :      1.16s CPU      1.12s WALL (       1 calls)
     electrons    :      5.40s CPU      3.16s WALL (       1 calls)

     Called by init_run:
     wfcinit      :      0.30s CPU      0.22s WALL (       1 calls)
     potinit      :      0.36s CPU      0.37s WALL (       1 calls)
     hinit0       :      0.46s CPU      0.47s WALL (       1 calls)

     Called by electrons:
     c_bands      :      3.09s CPU      1.74s WALL (       6 calls)
     sum_band     :      0.91s CPU      0.44s WALL (       6 calls)
     v_of_rho     :      0.71s CPU      0.41s WALL (       7 calls)
     newd         :      0.15s CPU      0.15s WALL (       7 calls)
     PAW_pot      :      0.61s CPU      0.53s WALL (       7 calls)
     mix_rho      :      0.05s CPU      0.03s WALL (       6 calls)

     Called by c_bands:
     init_us_2    :      0.10s CPU      0.05s WALL (     156 calls)
     cegterg      :      2.98s CPU      1.67s WALL (      72 calls)

     Called by *egterg:
     cdiaghg      :      0.11s CPU      0.05s WALL (     412 calls)
     h_psi        :      2.80s CPU      1.63s WALL (     424 calls)
     s_psi        :      0.06s CPU      0.04s WALL (     424 calls)
     g_psi        :      0.02s CPU      0.01s WALL (     340 calls)

     Called by h_psi:
     h_psi:calbec :      0.06s CPU      0.04s WALL (     424 calls)
     vloc_psi     :      2.60s CPU      1.50s WALL (     424 calls)
     add_vuspsi   :      0.12s CPU      0.08s WALL (     424 calls)

     General routines
     calbec       :      0.08s CPU      0.05s WALL (     496 calls)
     fft          :      0.63s CPU      0.52s WALL (      89 calls)
     ffts         :      0.23s CPU      0.23s WALL (      13 calls)
     fftw         :      2.36s CPU      1.39s WALL (    4278 calls)
     interpolate  :      0.24s CPU      0.24s WALL (       7 calls)


     PWSCF        :      6.77s CPU      4.42s WALL


   This run was terminated on:   8:41:31   9Sep2025            

=------------------------------------------------------------------------------=
   JOB DONE.
=------------------------------------------------------------------------------=
