
     Program PWSCF v.7.4.1 starts on  9Sep2025 at 17:11:19 

     This program is part of the open-source Quantum ESPRESSO suite
     for quantum simulation of materials; please cite
         "P. Giannozzi et al., J. Phys.:Condens. Matter 21 395502 (2009);
         "P. Giannozzi et al., J. Phys.:Condens. Matter 29 465901 (2017);
         "P. Giannozzi et al., J. Chem. Phys. 152 154105 (2020);
          URL http://www.quantum-espresso.org", 
     in publications or presentations arising from this work. More details at
     http://www.quantum-espresso.org/quote

     Serial version
     21972 MiB available memory on the printing compute node when the environment starts

     Waiting for input...
     Reading input from standard input

     Current dimensions of program PWSCF are:
     Max number of different atomic species (ntypx) = 10
     Max number of k-points (npk) =  40000
     Max angular momentum in pseudopotentials (lmaxx) =  4
     file C.pbe-n-kjpaw_psl.1.0.0.UPF: wavefunction(s)  2S 2P renormalized


     G-vector sticks info
     --------------------
     sticks:   dense  smooth     PW     G-vecs:    dense   smooth      PW
     Sum         661     253     85                82267    20639    3691

     Using Slab Decomposition



     bravais-lattice index     =            4
     lattice parameter (alat)  =       4.6140  a.u.
     unit-cell volume          =     510.4047 (a.u.)^3
     number of atoms/cell      =            2
     number of atomic types    =            1
     number of electrons       =         8.00
     number of Kohn-Sham states=            8
     kinetic-energy cutoff     =      45.0000  Ry
     charge density cutoff     =     450.0000  Ry
     scf convergence threshold =      1.0E-08
     mixing beta               =       0.7000
     number of iterations used =            8  plain     mixing
     Exchange-correlation= SLA  PW   PBX  PBC
                           (   1   4   3   4   0   0   0)

     celldm(1)=   4.614000  celldm(2)=   0.000000  celldm(3)=   6.000000
     celldm(4)=   0.000000  celldm(5)=   0.000000  celldm(6)=   0.000000

     crystal axes: (cart. coord. in units of alat)
               a(1) = (   1.000000   0.000000   0.000000 )  
               a(2) = (  -0.500000   0.866025   0.000000 )  
               a(3) = (   0.000000   0.000000   6.000000 )  

     reciprocal axes: (cart. coord. in units 2 pi/alat)
               b(1) = (  1.000000  0.577350 -0.000000 )  
               b(2) = (  0.000000  1.154701  0.000000 )  
               b(3) = (  0.000000 -0.000000  0.166667 )  


     PseudoPot. # 1 for C  read from file:
     ../../../../../pseudos/C.pbe-n-kjpaw_psl.1.0.0.UPF
     MD5 check sum: 5d2aebdfa2cae82b50a7e79e9516da0f
     Pseudo is Projector augmented-wave + core cor, Zval =  4.0
     Generated using "atomic" code by A. Dal Corso  v.5.1
     Shape of augmentation charge: PSQ
     Using radial grid of 1073 points,  4 beta functions with: 
                l(1) =   0
                l(2) =   0
                l(3) =   1
                l(4) =   1
     Q(r) pseudized with 0 coefficients 


     atomic species   valence    mass     pseudopotential
     C                 4.00    12.01070     C ( 1.00)

     24 Sym. Ops., with inversion, found (12 have fractional translation)



   Cartesian axes

     site n.     atom                  positions (alat units)
         1        C      tau(   1) = (   0.0000000   0.0000000   0.0000000  )
         2        C      tau(   2) = (   0.0000000   0.5773503   0.0000000  )

     number of k points=     2  Gaussian smearing, width (Ry)=  0.0100
                       cart. coord. in units 2pi/alat
        k(    1) = (   0.0000000   0.0000000   0.0000000), wk =   0.5000000
        k(    2) = (   0.0000000  -0.5773503   0.0000000), wk =   1.5000000

     Dense  grid:    82267 G-vectors     FFT dimensions: (  36,  36, 192)

     Smooth grid:    20639 G-vectors     FFT dimensions: (  24,  24, 120)

     Estimated max dynamical RAM per process >     109.39 MB

     Initial potential from superposition of free atoms

     starting charge       7.9999, renormalised to       8.0000

     negative rho (up, down):  9.733E-06 0.000E+00
     Starting wfcs are    8 randomized atomic wfcs

     total cpu time spent up to now is        1.6 secs

     Self-consistent Calculation

     iteration #  1     ecut=    45.00 Ry     beta= 0.70
     Davidson diagonalization with overlap
     ethr =  1.00E-02,  avg # of iterations =  5.0

     negative rho (up, down):  2.870E-05 0.000E+00

     total cpu time spent up to now is        2.1 secs

     total energy              =     -36.68884253 Ry
     estimated scf accuracy    <       0.26214604 Ry

     iteration #  2     ecut=    45.00 Ry     beta= 0.70
     Davidson diagonalization with overlap
     ethr =  3.28E-03,  avg # of iterations =  2.0

     negative rho (up, down):  3.925E-05 0.000E+00

     total cpu time spent up to now is        2.4 secs

     total energy              =     -36.72711213 Ry
     estimated scf accuracy    <       0.00302381 Ry

     iteration #  3     ecut=    45.00 Ry     beta= 0.70
     Davidson diagonalization with overlap
     ethr =  3.78E-05,  avg # of iterations =  6.5

     negative rho (up, down):  4.681E-05 0.000E+00

     total cpu time spent up to now is        2.8 secs

     total energy              =     -36.72736242 Ry
     estimated scf accuracy    <       0.00023470 Ry

     iteration #  4     ecut=    45.00 Ry     beta= 0.70
     Davidson diagonalization with overlap
     ethr =  2.93E-06,  avg # of iterations =  3.0

     negative rho (up, down):  4.766E-05 0.000E+00

     total cpu time spent up to now is        3.2 secs

     total energy              =     -36.72737147 Ry
     estimated scf accuracy    <       0.00000056 Ry

     iteration #  5     ecut=    45.00 Ry     beta= 0.70
     Davidson diagonalization with overlap
     ethr =  7.02E-09,  avg # of iterations =  2.5

     negative rho (up, down):  4.785E-05 0.000E+00

     total cpu time spent up to now is        3.6 secs

     total energy              =     -36.72737189 Ry
     estimated scf accuracy    <       0.00000004 Ry

     iteration #  6     ecut=    45.00 Ry     beta= 0.70
     Davidson diagonalization with overlap
     ethr =  5.41E-10,  avg # of iterations =  2.0

     negative rho (up, down):  4.790E-05 0.000E+00

     total cpu time spent up to now is        4.0 secs

     End of self-consistent calculation

          k = 0.0000 0.0000 0.0000 (  2579 PWs)   bands (ev):

   -20.8980  -9.0438  -4.0625  -4.0625   1.6034   2.4960   2.8938   4.9280

          k = 0.0000-0.5774 0.0000 (  2576 PWs)   bands (ev):

   -15.4899 -14.5526  -7.5714  -3.6095   0.4996   6.5359   9.6430   9.8261

     the Fermi energy is    -1.3553 ev

!    total energy              =     -36.72737190 Ry
     total all-electron energy =      -152.255568 Ry
     estimated scf accuracy    <          3.6E-10 Ry
     smearing contrib. (-TS)   =      -0.00000000 Ry
     internal energy E=F+TS    =     -36.72737190 Ry

     The total energy is F=E-TS. E is the sum of the following terms:
     one-electron contribution =    -155.29688102 Ry
     hartree contribution      =      79.54836484 Ry
     xc contribution           =      -9.37589289 Ry
     ewald contribution        =      60.71783306 Ry
     one-center paw contrib.   =     -12.32079588 Ry

     convergence has been achieved in   6 iterations

     Writing all to output data dir ./tmp/graphene.save/ :
     XML data file, charge density, pseudopotentials, collected wavefunctions

     init_run     :      1.48s CPU      1.51s WALL (       1 calls)
     electrons    :      3.30s CPU      2.35s WALL (       1 calls)

     Called by init_run:
     wfcinit      :      0.29s CPU      0.27s WALL (       1 calls)
     potinit      :      0.55s CPU      0.57s WALL (       1 calls)
     hinit0       :      0.57s CPU      0.58s WALL (       1 calls)

     Called by electrons:
     c_bands      :      0.83s CPU      0.46s WALL (       6 calls)
     sum_band     :      0.98s CPU      0.53s WALL (       6 calls)
     v_of_rho     :      0.80s CPU      0.63s WALL (       7 calls)
     newd         :      0.27s CPU      0.37s WALL (       7 calls)
     PAW_pot      :      0.46s CPU      0.46s WALL (       7 calls)
     mix_rho      :      0.09s CPU      0.06s WALL (       6 calls)

     Called by c_bands:
     init_us_2    :      0.02s CPU      0.01s WALL (      26 calls)
     cegterg      :      0.80s CPU      0.44s WALL (      12 calls)

     Called by *egterg:
     cdiaghg      :      0.02s CPU      0.01s WALL (      54 calls)
     h_psi        :      0.99s CPU      0.66s WALL (      56 calls)
     s_psi        :      0.01s CPU      0.01s WALL (      56 calls)
     g_psi        :      0.01s CPU      0.00s WALL (      42 calls)

     Called by h_psi:
     h_psi:calbec :      0.01s CPU      0.01s WALL (      56 calls)
     vloc_psi     :      0.95s CPU      0.63s WALL (      56 calls)
     add_vuspsi   :      0.02s CPU      0.02s WALL (      56 calls)

     General routines
     calbec       :      0.02s CPU      0.01s WALL (      68 calls)
     fft          :      0.74s CPU      0.67s WALL (      89 calls)
     ffts         :      0.41s CPU      0.40s WALL (      13 calls)
     fftw         :      0.82s CPU      0.58s WALL (     676 calls)
     interpolate  :      0.42s CPU      0.42s WALL (       7 calls)


     PWSCF        :      4.98s CPU      4.00s WALL


   This run was terminated on:  17:11:23   9Sep2025            

=------------------------------------------------------------------------------=
   JOB DONE.
=------------------------------------------------------------------------------=
