
     Program PWSCF v.7.4.1 starts on  9Sep2025 at 16:49:25 

     This program is part of the open-source Quantum ESPRESSO suite
     for quantum simulation of materials; please cite
         "P. Giannozzi et al., J. Phys.:Condens. Matter 21 395502 (2009);
         "P. Giannozzi et al., J. Phys.:Condens. Matter 29 465901 (2017);
         "P. Giannozzi et al., J. Chem. Phys. 152 154105 (2020);
          URL http://www.quantum-espresso.org", 
     in publications or presentations arising from this work. More details at
     http://www.quantum-espresso.org/quote

     Serial version
     21766 MiB available memory on the printing compute node when the environment starts

     Waiting for input...
     Reading input from standard input

     Current dimensions of program PWSCF are:
     Max number of different atomic species (ntypx) = 10
     Max number of k-points (npk) =  40000
     Max angular momentum in pseudopotentials (lmaxx) =  4
     file C.pbe-n-kjpaw_psl.1.0.0.UPF: wavefunction(s)  2S 2P renormalized


     G-vector sticks info
     --------------------
     sticks:   dense  smooth     PW     G-vecs:    dense   smooth      PW
     Sum         673     265     85                84597    21311    3847

     Using Slab Decomposition



     bravais-lattice index     =            4
     lattice parameter (alat)  =       4.6540  a.u.
     unit-cell volume          =     523.7946 (a.u.)^3
     number of atoms/cell      =            2
     number of atomic types    =            1
     number of electrons       =         8.00
     number of Kohn-Sham states=            8
     kinetic-energy cutoff     =      45.0000  Ry
     charge density cutoff     =     450.0000  Ry
     scf convergence threshold =      1.0E-08
     mixing beta               =       0.7000
     number of iterations used =            8  plain     mixing
     Exchange-correlation= SLA  PW   PBX  PBC
                           (   1   4   3   4   0   0   0)

     celldm(1)=   4.654000  celldm(2)=   0.000000  celldm(3)=   6.000000
     celldm(4)=   0.000000  celldm(5)=   0.000000  celldm(6)=   0.000000

     crystal axes: (cart. coord. in units of alat)
               a(1) = (   1.000000   0.000000   0.000000 )  
               a(2) = (  -0.500000   0.866025   0.000000 )  
               a(3) = (   0.000000   0.000000   6.000000 )  

     reciprocal axes: (cart. coord. in units 2 pi/alat)
               b(1) = (  1.000000  0.577350 -0.000000 )  
               b(2) = (  0.000000  1.154701  0.000000 )  
               b(3) = (  0.000000 -0.000000  0.166667 )  


     PseudoPot. # 1 for C  read from file:
     ../../../../../pseudos/C.pbe-n-kjpaw_psl.1.0.0.UPF
     MD5 check sum: 5d2aebdfa2cae82b50a7e79e9516da0f
     Pseudo is Projector augmented-wave + core cor, Zval =  4.0
     Generated using "atomic" code by A. Dal Corso  v.5.1
     Shape of augmentation charge: PSQ
     Using radial grid of 1073 points,  4 beta functions with: 
                l(1) =   0
                l(2) =   0
                l(3) =   1
                l(4) =   1
     Q(r) pseudized with 0 coefficients 


     atomic species   valence    mass     pseudopotential
     C                 4.00    12.01070     C ( 1.00)

     24 Sym. Ops., with inversion, found (12 have fractional translation)



   Cartesian axes

     site n.     atom                  positions (alat units)
         1        C      tau(   1) = (   0.0000000   0.0000000   0.0000000  )
         2        C      tau(   2) = (   0.0000000   0.5773503   0.0000000  )

     number of k points=     5  Gaussian smearing, width (Ry)=  0.0100
                       cart. coord. in units 2pi/alat
        k(    1) = (   0.0000000   0.0000000   0.0000000), wk =   0.0800000
        k(    2) = (   0.0000000   0.2309401   0.0000000), wk =   0.4800000
        k(    3) = (   0.0000000   0.4618802   0.0000000), wk =   0.4800000
        k(    4) = (   0.2000000   0.3464102   0.0000000), wk =   0.4800000
        k(    5) = (   0.2000000   0.5773503   0.0000000), wk =   0.4800000

     Dense  grid:    84597 G-vectors     FFT dimensions: (  36,  36, 192)

     Smooth grid:    21311 G-vectors     FFT dimensions: (  24,  24, 120)

     Estimated max dynamical RAM per process >     112.96 MB

     Initial potential from superposition of free atoms

     starting charge       7.9999, renormalised to       8.0000

     negative rho (up, down):  1.033E-05 0.000E+00
     Starting wfcs are    8 randomized atomic wfcs

     total cpu time spent up to now is        1.9 secs

     Self-consistent Calculation

     iteration #  1     ecut=    45.00 Ry     beta= 0.70
     Davidson diagonalization with overlap
     ethr =  1.00E-02,  avg # of iterations =  5.6

     negative rho (up, down):  2.551E-05 0.000E+00

     total cpu time spent up to now is        2.5 secs

     total energy              =     -36.85639858 Ry
     estimated scf accuracy    <       0.19836593 Ry

     iteration #  2     ecut=    45.00 Ry     beta= 0.70
     Davidson diagonalization with overlap
     ethr =  2.48E-03,  avg # of iterations =  2.0

     negative rho (up, down):  3.604E-05 0.000E+00

     total cpu time spent up to now is        3.1 secs

     total energy              =     -36.88494398 Ry
     estimated scf accuracy    <       0.00211864 Ry

     iteration #  3     ecut=    45.00 Ry     beta= 0.70
     Davidson diagonalization with overlap
     ethr =  2.65E-05,  avg # of iterations = 10.8

     negative rho (up, down):  4.405E-05 0.000E+00

     total cpu time spent up to now is        3.9 secs

     total energy              =     -36.88516714 Ry
     estimated scf accuracy    <       0.00016138 Ry

     iteration #  4     ecut=    45.00 Ry     beta= 0.70
     Davidson diagonalization with overlap
     ethr =  2.02E-06,  avg # of iterations =  5.2

     negative rho (up, down):  4.495E-05 0.000E+00

     total cpu time spent up to now is        4.5 secs

     total energy              =     -36.88517518 Ry
     estimated scf accuracy    <       0.00000129 Ry

     iteration #  5     ecut=    45.00 Ry     beta= 0.70
     Davidson diagonalization with overlap
     ethr =  1.61E-08,  avg # of iterations =  3.0

     negative rho (up, down):  4.509E-05 0.000E+00

     total cpu time spent up to now is        5.0 secs

     total energy              =     -36.88517608 Ry
     estimated scf accuracy    <       0.00000002 Ry

     iteration #  6     ecut=    45.00 Ry     beta= 0.70
     Davidson diagonalization with overlap
     ethr =  3.04E-10,  avg # of iterations =  2.0

     negative rho (up, down):  4.515E-05 0.000E+00

     total cpu time spent up to now is        5.5 secs

     End of self-consistent calculation

          k = 0.0000 0.0000 0.0000 (  2603 PWs)   bands (ev):

   -21.2125  -9.3029  -4.7022  -4.7022   1.5506   2.4486   2.8662   4.8422

          k = 0.0000 0.2309 0.0000 (  2637 PWs)   bands (ev):

   -20.2700  -8.1829  -7.8068  -6.1980   2.8387   3.7429   4.1751   6.1164

          k = 0.0000 0.4619 0.0000 (  2666 PWs)   bands (ev):

   -17.5226 -13.0102  -7.8624  -5.1489   1.5193   5.8809   6.7029   7.6223

          k = 0.2000 0.3464 0.0000 (  2671 PWs)   bands (ev):

   -18.4225 -10.6138  -9.1450  -6.0478   3.2644   5.4065   6.2919   6.7934

          k = 0.2000 0.5774 0.0000 (  2701 PWs)   bands (ev):

   -15.3473 -14.3682 -10.5257  -3.1602  -0.3497   9.2152   9.6819  10.2423

     the Fermi energy is    -1.2131 ev

!    total energy              =     -36.88517609 Ry
     total all-electron energy =      -152.413372 Ry
     estimated scf accuracy    <          6.3E-10 Ry
     smearing contrib. (-TS)   =      -0.00000000 Ry
     internal energy E=F+TS    =     -36.88517609 Ry

     The total energy is F=E-TS. E is the sum of the following terms:
     one-electron contribution =    -154.21354119 Ry
     hartree contribution      =      78.74679203 Ry
     xc contribution           =      -9.28076215 Ry
     ewald contribution        =      60.19597803 Ry
     one-center paw contrib.   =     -12.33364281 Ry

     convergence has been achieved in   6 iterations

     Writing all to output data dir ./tmp/graphene.save/ :
     XML data file, charge density, pseudopotentials, collected wavefunctions

     init_run     :      1.71s CPU      1.72s WALL (       1 calls)
     electrons    :      5.15s CPU      3.65s WALL (       1 calls)

     Called by init_run:
     wfcinit      :      0.39s CPU      0.34s WALL (       1 calls)
     potinit      :      0.61s CPU      0.64s WALL (       1 calls)
     hinit0       :      0.63s CPU      0.64s WALL (       1 calls)

     Called by electrons:
     c_bands      :      2.37s CPU      1.39s WALL (       6 calls)
     sum_band     :      1.18s CPU      0.70s WALL (       6 calls)
     v_of_rho     :      0.78s CPU      0.72s WALL (       7 calls)
     newd         :      0.32s CPU      0.43s WALL (       7 calls)
     PAW_pot      :      0.54s CPU      0.54s WALL (       7 calls)
     mix_rho      :      0.11s CPU      0.07s WALL (       6 calls)

     Called by c_bands:
     init_us_2    :      0.07s CPU      0.04s WALL (      65 calls)
     cegterg      :      2.27s CPU      1.34s WALL (      30 calls)

     Called by *egterg:
     cdiaghg      :      0.05s CPU      0.02s WALL (     173 calls)
     h_psi        :      2.32s CPU      1.50s WALL (     178 calls)
     s_psi        :      0.04s CPU      0.03s WALL (     178 calls)
     g_psi        :      0.02s CPU      0.01s WALL (     143 calls)

     Called by h_psi:
     h_psi:calbec :      0.05s CPU      0.03s WALL (     178 calls)
     vloc_psi     :      2.17s CPU      1.37s WALL (     178 calls)
     add_vuspsi   :      0.08s CPU      0.09s WALL (     178 calls)

     General routines
     calbec       :      0.06s CPU      0.04s WALL (     208 calls)
     fft          :      0.84s CPU      0.77s WALL (      89 calls)
     ffts         :      0.43s CPU      0.43s WALL (      13 calls)
     fftw         :      1.76s CPU      1.17s WALL (    1794 calls)
     interpolate  :      0.46s CPU      0.46s WALL (       7 calls)


     PWSCF        :      7.03s CPU      5.54s WALL


   This run was terminated on:  16:49:31   9Sep2025            

=------------------------------------------------------------------------------=
   JOB DONE.
=------------------------------------------------------------------------------=
