
     Program PWSCF v.7.4.1 starts on  9Sep2025 at  8:42: 2 

     This program is part of the open-source Quantum ESPRESSO suite
     for quantum simulation of materials; please cite
         "P. Giannozzi et al., J. Phys.:Condens. Matter 21 395502 (2009);
         "P. Giannozzi et al., J. Phys.:Condens. Matter 29 465901 (2017);
         "P. Giannozzi et al., J. Chem. Phys. 152 154105 (2020);
          URL http://www.quantum-espresso.org", 
     in publications or presentations arising from this work. More details at
     http://www.quantum-espresso.org/quote

     Serial version
     8118 MiB available memory on the printing compute node when the environment starts

     Waiting for input...
     Reading input from standard input

     Current dimensions of program PWSCF are:
     Max number of different atomic species (ntypx) = 10
     Max number of k-points (npk) =  40000
     Max angular momentum in pseudopotentials (lmaxx) =  4
     file C.pbe-n-kjpaw_psl.1.0.0.UPF: wavefunction(s)  2S 2P renormalized


     G-vector sticks info
     --------------------
     sticks:   dense  smooth     PW     G-vecs:    dense   smooth      PW
     Sum         745     295     91                96665    24383    4337

     Using Slab Decomposition



     bravais-lattice index     =            4
     lattice parameter (alat)  =       4.6140  a.u.
     unit-cell volume          =     510.4047 (a.u.)^3
     number of atoms/cell      =            2
     number of atomic types    =            1
     number of electrons       =         8.00
     number of Kohn-Sham states=            8
     kinetic-energy cutoff     =      50.0000  Ry
     charge density cutoff     =     500.0000  Ry
     scf convergence threshold =      1.0E-08
     mixing beta               =       0.7000
     number of iterations used =            8  plain     mixing
     Exchange-correlation= SLA  PW   PBX  PBC
                           (   1   4   3   4   0   0   0)

     celldm(1)=   4.614000  celldm(2)=   0.000000  celldm(3)=   6.000000
     celldm(4)=   0.000000  celldm(5)=   0.000000  celldm(6)=   0.000000

     crystal axes: (cart. coord. in units of alat)
               a(1) = (   1.000000   0.000000   0.000000 )  
               a(2) = (  -0.500000   0.866025   0.000000 )  
               a(3) = (   0.000000   0.000000   6.000000 )  

     reciprocal axes: (cart. coord. in units 2 pi/alat)
               b(1) = (  1.000000  0.577350 -0.000000 )  
               b(2) = (  0.000000  1.154701  0.000000 )  
               b(3) = (  0.000000 -0.000000  0.166667 )  


     PseudoPot. # 1 for C  read from file:
     ../../../../../pseudos/C.pbe-n-kjpaw_psl.1.0.0.UPF
     MD5 check sum: 5d2aebdfa2cae82b50a7e79e9516da0f
     Pseudo is Projector augmented-wave + core cor, Zval =  4.0
     Generated using "atomic" code by A. Dal Corso  v.5.1
     Shape of augmentation charge: PSQ
     Using radial grid of 1073 points,  4 beta functions with: 
                l(1) =   0
                l(2) =   0
                l(3) =   1
                l(4) =   1
     Q(r) pseudized with 0 coefficients 


     atomic species   valence    mass     pseudopotential
     C                 4.00    12.01070     C ( 1.00)

     24 Sym. Ops., with inversion, found (12 have fractional translation)



   Cartesian axes

     site n.     atom                  positions (alat units)
         1        C      tau(   1) = (   0.0000000   0.0000000   0.0000000  )
         2        C      tau(   2) = (   0.0000000   0.5773503   0.0000000  )

     number of k points=    12  Gaussian smearing, width (Ry)=  0.0100
                       cart. coord. in units 2pi/alat
        k(    1) = (   0.0000000   0.0000000   0.0000000), wk =   0.0246914
        k(    2) = (   0.0000000   0.1283001   0.0000000), wk =   0.1481481
        k(    3) = (   0.0000000   0.2566001   0.0000000), wk =   0.1481481
        k(    4) = (   0.0000000   0.3849002   0.0000000), wk =   0.1481481
        k(    5) = (   0.0000000   0.5132002   0.0000000), wk =   0.1481481
        k(    6) = (   0.1111111   0.1924501   0.0000000), wk =   0.1481481
        k(    7) = (   0.1111111   0.3207501   0.0000000), wk =   0.2962963
        k(    8) = (   0.1111111   0.4490502   0.0000000), wk =   0.2962963
        k(    9) = (   0.1111111   0.5773503   0.0000000), wk =   0.1481481
        k(   10) = (   0.2222222   0.3849002   0.0000000), wk =   0.1481481
        k(   11) = (   0.2222222   0.5132002   0.0000000), wk =   0.2962963
        k(   12) = (   0.3333333   0.5773503   0.0000000), wk =   0.0493827

     Dense  grid:    96665 G-vectors     FFT dimensions: (  36,  36, 200)

     Smooth grid:    24383 G-vectors     FFT dimensions: (  24,  24, 125)

     Estimated max dynamical RAM per process >     129.91 MB

     Check: negative core charge=   -0.000001

     Initial potential from superposition of free atoms

     starting charge       7.9999, renormalised to       8.0000

     negative rho (up, down):  4.606E-05 0.000E+00
     Starting wfcs are    8 randomized atomic wfcs

     total cpu time spent up to now is        1.4 secs

     Self-consistent Calculation

     iteration #  1     ecut=    50.00 Ry     beta= 0.70
     Davidson diagonalization with overlap
     ethr =  1.00E-02,  avg # of iterations =  5.2

     negative rho (up, down):  5.775E-05 0.000E+00

     total cpu time spent up to now is        2.5 secs

     total energy              =     -36.85464558 Ry
     estimated scf accuracy    <       0.21061766 Ry

     iteration #  2     ecut=    50.00 Ry     beta= 0.70
     Davidson diagonalization with overlap
     ethr =  2.63E-03,  avg # of iterations =  3.5

     negative rho (up, down):  6.889E-05 0.000E+00

     total cpu time spent up to now is        3.4 secs

     total energy              =     -36.88477770 Ry
     estimated scf accuracy    <       0.00210810 Ry

     iteration #  3     ecut=    50.00 Ry     beta= 0.70
     Davidson diagonalization with overlap
     ethr =  2.64E-05,  avg # of iterations = 11.2

     negative rho (up, down):  7.719E-05 0.000E+00

     total cpu time spent up to now is        4.8 secs

     total energy              =     -36.88505551 Ry
     estimated scf accuracy    <       0.00015706 Ry

     iteration #  4     ecut=    50.00 Ry     beta= 0.70
     Davidson diagonalization with overlap
     ethr =  1.96E-06,  avg # of iterations =  3.2

     negative rho (up, down):  7.797E-05 0.000E+00

     total cpu time spent up to now is        5.7 secs

     total energy              =     -36.88506677 Ry
     estimated scf accuracy    <       0.00000145 Ry

     iteration #  5     ecut=    50.00 Ry     beta= 0.70
     Davidson diagonalization with overlap
     ethr =  1.81E-08,  avg # of iterations =  3.1

     negative rho (up, down):  7.799E-05 0.000E+00

     total cpu time spent up to now is        6.6 secs

     total energy              =     -36.88506772 Ry
     estimated scf accuracy    <       0.00000003 Ry

     iteration #  6     ecut=    50.00 Ry     beta= 0.70
     Davidson diagonalization with overlap
     ethr =  3.70E-10,  avg # of iterations =  2.6

     negative rho (up, down):  7.799E-05 0.000E+00

     total cpu time spent up to now is        7.5 secs

     End of self-consistent calculation

          k = 0.0000 0.0000 0.0000 (  3027 PWs)   bands (ev):

   -21.3085  -9.3640  -4.5799  -4.5799   1.5729   2.4670   2.8382   4.8745

          k = 0.0000 0.1283 0.0000 (  3027 PWs)   bands (ev):

   -21.0121  -9.0076  -5.7087  -5.1699   1.9778   2.8751   3.2488   5.2787

          k = 0.0000 0.2566 0.0000 (  3037 PWs)   bands (ev):

   -20.1288  -8.2944  -7.9566  -6.3575   3.1915   4.0922   4.4806   6.4263

          k = 0.0000 0.3849 0.0000 (  3077 PWs)   bands (ev):

   -18.6788 -11.2721  -7.4044  -6.2917   3.4912   5.2015   6.1512   6.4130

          k = 0.0000 0.5132 0.0000 (  3081 PWs)   bands (ev):

   -16.7325 -14.0710  -7.9822  -4.3979   0.7125   6.1773   8.0202   8.9509

          k = 0.1111 0.1925 0.0000 (  3041 PWs)   bands (ev):

   -20.4223  -8.3032  -7.2812  -6.3476   2.7879   3.6892   4.0707   6.0838

          k = 0.1111 0.3208 0.0000 (  3050 PWs)   bands (ev):

   -19.2556  -9.7682  -7.7630  -6.9354   4.4041   4.7822   5.3336   5.7134

          k = 0.1111 0.4491 0.0000 (  3055 PWs)   bands (ev):

   -17.5485 -12.5781  -8.6605  -5.0613   1.8592   6.8004   7.5518   7.7161

          k = 0.1111 0.5774 0.0000 (  3032 PWs)   bands (ev):

   -15.7426 -14.7916  -8.9662  -3.6860   0.0811   7.3945   9.8800  10.0388

          k = 0.2222 0.3849 0.0000 (  3037 PWs)   bands (ev):

   -17.8298 -11.2894  -9.8311  -5.3142   2.5151   6.4122   7.2659   7.7650

          k = 0.2222 0.5132 0.0000 (  3048 PWs)   bands (ev):

   -15.9399 -13.4529 -10.8414  -3.3880   0.2136   9.1540   9.3974  10.2882

          k = 0.3333 0.5774 0.0000 (  2997 PWs)   bands (ev):

   -14.2371 -14.2371 -12.3311  -1.5375  -1.5375   9.1223  11.5373  11.5374

     the Fermi energy is    -1.5375 ev

!    total energy              =     -36.88506773 Ry
     total all-electron energy =      -152.413263 Ry
     estimated scf accuracy    <          1.8E-10 Ry
     smearing contrib. (-TS)   =      -0.00027861 Ry
     internal energy E=F+TS    =     -36.88478912 Ry

     The total energy is F=E-TS. E is the sum of the following terms:
     one-electron contribution =    -155.23458661 Ry
     hartree contribution      =      79.28637026 Ry
     xc contribution           =      -9.31868782 Ry
     ewald contribution        =      60.71783306 Ry
     one-center paw contrib.   =     -12.33571801 Ry

     convergence has been achieved in   6 iterations

     Writing all to output data dir ./tmp/graphene.save/ :
     XML data file, charge density, pseudopotentials, collected wavefunctions

     init_run     :      1.39s CPU      1.29s WALL (       1 calls)
     electrons    :      9.67s CPU      6.07s WALL (       1 calls)

     Called by init_run:
     wfcinit      :      0.45s CPU      0.29s WALL (       1 calls)
     potinit      :      0.33s CPU      0.36s WALL (       1 calls)
     hinit0       :      0.52s CPU      0.53s WALL (       1 calls)

     Called by electrons:
     c_bands      :      6.40s CPU      3.57s WALL (       6 calls)
     sum_band     :      1.76s CPU      0.98s WALL (       6 calls)
     v_of_rho     :      0.75s CPU      0.72s WALL (       7 calls)
     newd         :      0.31s CPU      0.45s WALL (       7 calls)
     PAW_pot      :      0.46s CPU      0.47s WALL (       7 calls)
     mix_rho      :      0.11s CPU      0.07s WALL (       6 calls)

     Called by c_bands:
     init_us_2    :      0.18s CPU      0.10s WALL (     156 calls)
     cegterg      :      6.16s CPU      3.44s WALL (      72 calls)

     Called by *egterg:
     cdiaghg      :      0.12s CPU      0.06s WALL (     417 calls)
     h_psi        :      5.70s CPU      3.28s WALL (     429 calls)
     s_psi        :      0.08s CPU      0.05s WALL (     429 calls)
     g_psi        :      0.06s CPU      0.02s WALL (     345 calls)

     Called by h_psi:
     h_psi:calbec :      0.14s CPU      0.08s WALL (     429 calls)
     vloc_psi     :      5.38s CPU      3.07s WALL (     429 calls)
     add_vuspsi   :      0.15s CPU      0.11s WALL (     429 calls)

     General routines
     calbec       :      0.16s CPU      0.09s WALL (     501 calls)
     fft          :      0.69s CPU      0.62s WALL (      89 calls)
     ffts         :      0.18s CPU      0.17s WALL (      13 calls)
     fftw         :      4.34s CPU      2.61s WALL (    4384 calls)
     interpolate  :      0.19s CPU      0.19s WALL (       7 calls)


     PWSCF        :     11.29s CPU      7.50s WALL


   This run was terminated on:   8:42:10   9Sep2025            

=------------------------------------------------------------------------------=
   JOB DONE.
=------------------------------------------------------------------------------=
