
     Program PWSCF v.7.4.1 starts on  9Sep2025 at  8:35:17 

     This program is part of the open-source Quantum ESPRESSO suite
     for quantum simulation of materials; please cite
         "P. Giannozzi et al., J. Phys.:Condens. Matter 21 395502 (2009);
         "P. Giannozzi et al., J. Phys.:Condens. Matter 29 465901 (2017);
         "P. Giannozzi et al., J. Chem. Phys. 152 154105 (2020);
          URL http://www.quantum-espresso.org", 
     in publications or presentations arising from this work. More details at
     http://www.quantum-espresso.org/quote

     Serial version
     8122 MiB available memory on the printing compute node when the environment starts

     Waiting for input...
     Reading input from standard input

     Current dimensions of program PWSCF are:
     Max number of different atomic species (ntypx) = 10
     Max number of k-points (npk) =  40000
     Max angular momentum in pseudopotentials (lmaxx) =  4
     file C.pbe-n-kjpaw_psl.1.0.0.UPF: wavefunction(s)  2S 2P renormalized


     G-vector sticks info
     --------------------
     sticks:   dense  smooth     PW     G-vecs:    dense   smooth      PW
     Sum         757     301     91               101445    25723    4541

     Using Slab Decomposition



     bravais-lattice index     =            4
     lattice parameter (alat)  =       4.6940  a.u.
     unit-cell volume          =     537.4167 (a.u.)^3
     number of atoms/cell      =            2
     number of atomic types    =            1
     number of electrons       =         8.00
     number of Kohn-Sham states=            8
     kinetic-energy cutoff     =      50.0000  Ry
     charge density cutoff     =     500.0000  Ry
     scf convergence threshold =      1.0E-08
     mixing beta               =       0.7000
     number of iterations used =            8  plain     mixing
     Exchange-correlation= SLA  PW   PBX  PBC
                           (   1   4   3   4   0   0   0)

     celldm(1)=   4.694000  celldm(2)=   0.000000  celldm(3)=   6.000000
     celldm(4)=   0.000000  celldm(5)=   0.000000  celldm(6)=   0.000000

     crystal axes: (cart. coord. in units of alat)
               a(1) = (   1.000000   0.000000   0.000000 )  
               a(2) = (  -0.500000   0.866025   0.000000 )  
               a(3) = (   0.000000   0.000000   6.000000 )  

     reciprocal axes: (cart. coord. in units 2 pi/alat)
               b(1) = (  1.000000  0.577350 -0.000000 )  
               b(2) = (  0.000000  1.154701  0.000000 )  
               b(3) = (  0.000000 -0.000000  0.166667 )  


     PseudoPot. # 1 for C  read from file:
     ../../../../../pseudos/C.pbe-n-kjpaw_psl.1.0.0.UPF
     MD5 check sum: 5d2aebdfa2cae82b50a7e79e9516da0f
     Pseudo is Projector augmented-wave + core cor, Zval =  4.0
     Generated using "atomic" code by A. Dal Corso  v.5.1
     Shape of augmentation charge: PSQ
     Using radial grid of 1073 points,  4 beta functions with: 
                l(1) =   0
                l(2) =   0
                l(3) =   1
                l(4) =   1
     Q(r) pseudized with 0 coefficients 


     atomic species   valence    mass     pseudopotential
     C                 4.00    12.01070     C ( 1.00)

     24 Sym. Ops., with inversion, found (12 have fractional translation)



   Cartesian axes

     site n.     atom                  positions (alat units)
         1        C      tau(   1) = (   0.0000000   0.0000000   0.0000000  )
         2        C      tau(   2) = (   0.0000000   0.5773503   0.0000000  )

     number of k points=    12  Gaussian smearing, width (Ry)=  0.0100
                       cart. coord. in units 2pi/alat
        k(    1) = (   0.0000000   0.0000000   0.0000000), wk =   0.0246914
        k(    2) = (   0.0000000   0.1283001   0.0000000), wk =   0.1481481
        k(    3) = (   0.0000000   0.2566001   0.0000000), wk =   0.1481481
        k(    4) = (   0.0000000   0.3849002   0.0000000), wk =   0.1481481
        k(    5) = (   0.0000000   0.5132002   0.0000000), wk =   0.1481481
        k(    6) = (   0.1111111   0.1924501   0.0000000), wk =   0.1481481
        k(    7) = (   0.1111111   0.3207501   0.0000000), wk =   0.2962963
        k(    8) = (   0.1111111   0.4490502   0.0000000), wk =   0.2962963
        k(    9) = (   0.1111111   0.5773503   0.0000000), wk =   0.1481481
        k(   10) = (   0.2222222   0.3849002   0.0000000), wk =   0.1481481
        k(   11) = (   0.2222222   0.5132002   0.0000000), wk =   0.2962963
        k(   12) = (   0.3333333   0.5773503   0.0000000), wk =   0.0493827

     Dense  grid:   101445 G-vectors     FFT dimensions: (  36,  36, 216)

     Smooth grid:    25723 G-vectors     FFT dimensions: (  24,  24, 128)

     Estimated max dynamical RAM per process >     136.87 MB

     Check: negative core charge=   -0.000001

     Initial potential from superposition of free atoms

     starting charge       7.9999, renormalised to       8.0000

     negative rho (up, down):  4.844E-05 0.000E+00
     Starting wfcs are    8 randomized atomic wfcs

     total cpu time spent up to now is        2.0 secs

     Self-consistent Calculation

     iteration #  1     ecut=    50.00 Ry     beta= 0.70
     Davidson diagonalization with overlap
     ethr =  1.00E-02,  avg # of iterations =  6.2

     negative rho (up, down):  5.908E-05 0.000E+00

     total cpu time spent up to now is        3.2 secs

     total energy              =     -36.85987502 Ry
     estimated scf accuracy    <       0.18278507 Ry

     iteration #  2     ecut=    50.00 Ry     beta= 0.70
     Davidson diagonalization with overlap
     ethr =  2.28E-03,  avg # of iterations =  2.8

     negative rho (up, down):  6.938E-05 0.000E+00

     total cpu time spent up to now is        4.0 secs

     total energy              =     -36.88551287 Ry
     estimated scf accuracy    <       0.00203817 Ry

     iteration #  3     ecut=    50.00 Ry     beta= 0.70
     Davidson diagonalization with overlap
     ethr =  2.55E-05,  avg # of iterations =  9.7

     negative rho (up, down):  7.718E-05 0.000E+00

     total cpu time spent up to now is        5.4 secs

     total energy              =     -36.88574664 Ry
     estimated scf accuracy    <       0.00015262 Ry

     iteration #  4     ecut=    50.00 Ry     beta= 0.70
     Davidson diagonalization with overlap
     ethr =  1.91E-06,  avg # of iterations =  3.6

     negative rho (up, down):  7.779E-05 0.000E+00

     total cpu time spent up to now is        6.3 secs

     total energy              =     -36.88575705 Ry
     estimated scf accuracy    <       0.00000125 Ry

     iteration #  5     ecut=    50.00 Ry     beta= 0.70
     Davidson diagonalization with overlap
     ethr =  1.56E-08,  avg # of iterations =  3.2

     negative rho (up, down):  7.781E-05 0.000E+00

     total cpu time spent up to now is        7.3 secs

     total energy              =     -36.88575792 Ry
     estimated scf accuracy    <       0.00000003 Ry

     iteration #  6     ecut=    50.00 Ry     beta= 0.70
     Davidson diagonalization with overlap
     ethr =  3.91E-10,  avg # of iterations =  2.4

     negative rho (up, down):  7.781E-05 0.000E+00

     total cpu time spent up to now is        8.5 secs

     End of self-consistent calculation

          k = 0.0000 0.0000 0.0000 (  3147 PWs)   bands (ev):

   -21.1415  -9.2630  -4.8482  -4.8482   1.4860   2.3572   2.7147   4.6703

          k = 0.0000 0.1283 0.0000 (  3227 PWs)   bands (ev):

   -20.8540  -8.9213  -5.9544  -5.4073   1.8775   2.7512   3.1117   5.0605

          k = 0.0000 0.2566 0.0000 (  3219 PWs)   bands (ev):

   -19.9974  -8.4764  -7.9142  -6.5373   3.0506   3.9255   4.3024   5.9917

          k = 0.0000 0.3849 0.0000 (  3223 PWs)   bands (ev):

   -18.5931 -11.3696  -7.5370  -6.3218   3.0372   4.9887   5.7302   5.9092

          k = 0.0000 0.5132 0.0000 (  3230 PWs)   bands (ev):

   -16.7238 -14.0685  -8.0896  -4.5195   0.4082   5.4238   7.7111   8.6096

          k = 0.1111 0.1925 0.0000 (  3225 PWs)   bands (ev):

   -20.2820  -8.2462  -7.4994  -6.5262   2.6604   3.5371   3.9061   5.8374

          k = 0.1111 0.3208 0.0000 (  3203 PWs)   bands (ev):

   -19.1513  -9.9207  -7.8847  -6.9368   4.2220   4.2533   5.1134   5.4937

          k = 0.1111 0.4491 0.0000 (  3211 PWs)   bands (ev):

   -17.5014 -12.6398  -8.7519  -5.1476   1.4802   6.5152   6.8006   7.4193

          k = 0.1111 0.5774 0.0000 (  3212 PWs)   bands (ev):

   -15.8142 -14.7222  -9.0472  -3.8437  -0.1988   6.6088   9.4986   9.6634

          k = 0.2222 0.3849 0.0000 (  3201 PWs)   bands (ev):

   -17.7715 -11.4342  -9.8532  -5.3873   2.0838   6.1611   6.9866   7.4763

          k = 0.2222 0.5132 0.0000 (  3189 PWs)   bands (ev):

   -15.9559 -13.5074 -10.8428  -3.5522  -0.1038   8.7977   9.0339   9.4580

          k = 0.3333 0.5774 0.0000 (  3195 PWs)   bands (ev):

   -14.3322 -14.3322 -12.1993  -1.7858  -1.7858   8.7992  10.9365  10.9365

     the Fermi energy is    -1.7858 ev

!    total energy              =     -36.88575793 Ry
     total all-electron energy =      -152.413954 Ry
     estimated scf accuracy    <          2.4E-10 Ry
     smearing contrib. (-TS)   =      -0.00027861 Ry
     internal energy E=F+TS    =     -36.88547932 Ry

     The total energy is F=E-TS. E is the sum of the following terms:
     one-electron contribution =    -153.19593590 Ry
     hartree contribution      =      78.20092567 Ry
     xc contribution           =      -9.24116978 Ry
     ewald contribution        =      59.68301699 Ry
     one-center paw contrib.   =     -12.33231630 Ry

     convergence has been achieved in   6 iterations

     Writing all to output data dir ./tmp/graphene.save/ :
     XML data file, charge density, pseudopotentials, collected wavefunctions

     init_run     :      1.82s CPU      1.82s WALL (       1 calls)
     electrons    :     10.04s CPU      6.52s WALL (       1 calls)

     Called by init_run:
     wfcinit      :      0.57s CPU      0.38s WALL (       1 calls)
     potinit      :      0.48s CPU      0.50s WALL (       1 calls)
     hinit0       :      0.66s CPU      0.81s WALL (       1 calls)

     Called by electrons:
     c_bands      :      6.55s CPU      3.72s WALL (       6 calls)
     sum_band     :      1.76s CPU      1.08s WALL (       6 calls)
     v_of_rho     :      0.84s CPU      0.80s WALL (       7 calls)
     newd         :      0.38s CPU      0.48s WALL (       7 calls)
     PAW_pot      :      0.53s CPU      0.53s WALL (       7 calls)
     mix_rho      :      0.12s CPU      0.07s WALL (       6 calls)

     Called by c_bands:
     init_us_2    :      0.19s CPU      0.12s WALL (     156 calls)
     cegterg      :      6.31s CPU      3.58s WALL (      72 calls)

     Called by *egterg:
     cdiaghg      :      0.14s CPU      0.06s WALL (     405 calls)
     h_psi        :      5.83s CPU      3.51s WALL (     417 calls)
     s_psi        :      0.09s CPU      0.04s WALL (     417 calls)
     g_psi        :      0.06s CPU      0.02s WALL (     333 calls)

     Called by h_psi:
     h_psi:calbec :      0.14s CPU      0.07s WALL (     417 calls)
     vloc_psi     :      5.38s CPU      3.19s WALL (     417 calls)
     add_vuspsi   :      0.28s CPU      0.24s WALL (     417 calls)

     General routines
     calbec       :      0.16s CPU      0.08s WALL (     489 calls)
     fft          :      0.78s CPU      0.74s WALL (      89 calls)
     ffts         :      0.31s CPU      0.31s WALL (      13 calls)
     fftw         :      4.17s CPU      2.62s WALL (    4316 calls)
     interpolate  :      0.32s CPU      0.33s WALL (       7 calls)


     PWSCF        :     12.04s CPU      8.55s WALL


   This run was terminated on:   8:35:26   9Sep2025            

=------------------------------------------------------------------------------=
   JOB DONE.
=------------------------------------------------------------------------------=
