
     Program PWSCF v.7.4.1 starts on  9Sep2025 at 17: 2:23 

     This program is part of the open-source Quantum ESPRESSO suite
     for quantum simulation of materials; please cite
         "P. Giannozzi et al., J. Phys.:Condens. Matter 21 395502 (2009);
         "P. Giannozzi et al., J. Phys.:Condens. Matter 29 465901 (2017);
         "P. Giannozzi et al., J. Chem. Phys. 152 154105 (2020);
          URL http://www.quantum-espresso.org", 
     in publications or presentations arising from this work. More details at
     http://www.quantum-espresso.org/quote

     Serial version
     21983 MiB available memory on the printing compute node when the environment starts

     Waiting for input...
     Reading input from standard input

     Current dimensions of program PWSCF are:
     Max number of different atomic species (ntypx) = 10
     Max number of k-points (npk) =  40000
     Max angular momentum in pseudopotentials (lmaxx) =  4
     file C.pbe-n-kjpaw_psl.1.0.0.UPF: wavefunction(s)  2S 2P renormalized


     G-vector sticks info
     --------------------
     sticks:   dense  smooth     PW     G-vecs:    dense   smooth      PW
     Sum         673     271     85                86543    21859    3919

     Using Slab Decomposition



     bravais-lattice index     =            4
     lattice parameter (alat)  =       4.6940  a.u.
     unit-cell volume          =     537.4167 (a.u.)^3
     number of atoms/cell      =            2
     number of atomic types    =            1
     number of electrons       =         8.00
     number of Kohn-Sham states=            8
     kinetic-energy cutoff     =      45.0000  Ry
     charge density cutoff     =     450.0000  Ry
     scf convergence threshold =      1.0E-08
     mixing beta               =       0.7000
     number of iterations used =            8  plain     mixing
     Exchange-correlation= SLA  PW   PBX  PBC
                           (   1   4   3   4   0   0   0)

     celldm(1)=   4.694000  celldm(2)=   0.000000  celldm(3)=   6.000000
     celldm(4)=   0.000000  celldm(5)=   0.000000  celldm(6)=   0.000000

     crystal axes: (cart. coord. in units of alat)
               a(1) = (   1.000000   0.000000   0.000000 )  
               a(2) = (  -0.500000   0.866025   0.000000 )  
               a(3) = (   0.000000   0.000000   6.000000 )  

     reciprocal axes: (cart. coord. in units 2 pi/alat)
               b(1) = (  1.000000  0.577350 -0.000000 )  
               b(2) = (  0.000000  1.154701  0.000000 )  
               b(3) = (  0.000000 -0.000000  0.166667 )  


     PseudoPot. # 1 for C  read from file:
     ../../../../../pseudos/C.pbe-n-kjpaw_psl.1.0.0.UPF
     MD5 check sum: 5d2aebdfa2cae82b50a7e79e9516da0f
     Pseudo is Projector augmented-wave + core cor, Zval =  4.0
     Generated using "atomic" code by A. Dal Corso  v.5.1
     Shape of augmentation charge: PSQ
     Using radial grid of 1073 points,  4 beta functions with: 
                l(1) =   0
                l(2) =   0
                l(3) =   1
                l(4) =   1
     Q(r) pseudized with 0 coefficients 


     atomic species   valence    mass     pseudopotential
     C                 4.00    12.01070     C ( 1.00)

     24 Sym. Ops., with inversion, found (12 have fractional translation)



   Cartesian axes

     site n.     atom                  positions (alat units)
         1        C      tau(   1) = (   0.0000000   0.0000000   0.0000000  )
         2        C      tau(   2) = (   0.0000000   0.5773503   0.0000000  )

     number of k points=    24  Gaussian smearing, width (Ry)=  0.0100
                       cart. coord. in units 2pi/alat
        k(    1) = (   0.0000000   0.0000000   0.0000000), wk =   0.0102041
        k(    2) = (   0.0000000   0.0824786   0.0000000), wk =   0.0612245
        k(    3) = (   0.0000000   0.1649572   0.0000000), wk =   0.0612245
        k(    4) = (   0.0000000   0.2474358   0.0000000), wk =   0.0612245
        k(    5) = (   0.0000000   0.3299144   0.0000000), wk =   0.0612245
        k(    6) = (   0.0000000   0.4123930   0.0000000), wk =   0.0612245
        k(    7) = (   0.0000000   0.4948717   0.0000000), wk =   0.0612245
        k(    8) = (   0.0000000  -0.5773503   0.0000000), wk =   0.0306122
        k(    9) = (   0.0714286   0.1237179   0.0000000), wk =   0.0612245
        k(   10) = (   0.0714286   0.2061965   0.0000000), wk =   0.1224490
        k(   11) = (   0.0714286   0.2886751   0.0000000), wk =   0.1224490
        k(   12) = (   0.0714286   0.3711537   0.0000000), wk =   0.1224490
        k(   13) = (   0.0714286   0.4536324   0.0000000), wk =   0.1224490
        k(   14) = (   0.0714286   0.5361110   0.0000000), wk =   0.1224490
        k(   15) = (   0.1428571   0.2474358   0.0000000), wk =   0.0612245
        k(   16) = (   0.1428571   0.3299144   0.0000000), wk =   0.1224490
        k(   17) = (   0.1428571   0.4123930   0.0000000), wk =   0.1224490
        k(   18) = (   0.1428571   0.4948717   0.0000000), wk =   0.1224490
        k(   19) = (   0.1428571   0.5773503   0.0000000), wk =   0.0612245
        k(   20) = (   0.2142857   0.3711537   0.0000000), wk =   0.0612245
        k(   21) = (   0.2142857   0.4536324   0.0000000), wk =   0.1224490
        k(   22) = (   0.2142857   0.5361110   0.0000000), wk =   0.1224490
        k(   23) = (   0.2857143   0.4948717   0.0000000), wk =   0.0612245
        k(   24) = (   0.2857143   0.5773503   0.0000000), wk =   0.0612245

     Dense  grid:    86543 G-vectors     FFT dimensions: (  36,  36, 192)

     Smooth grid:    21859 G-vectors     FFT dimensions: (  24,  24, 125)

     Estimated max dynamical RAM per process >     121.52 MB

     Initial potential from superposition of free atoms

     starting charge       7.9999, renormalised to       8.0000

     negative rho (up, down):  1.080E-05 0.000E+00
     Starting wfcs are    8 randomized atomic wfcs

     total cpu time spent up to now is        1.6 secs

     Self-consistent Calculation

     iteration #  1     ecut=    45.00 Ry     beta= 0.70
     Davidson diagonalization with overlap
     ethr =  1.00E-02,  avg # of iterations =  5.5

     negative rho (up, down):  2.541E-05 0.000E+00

     total cpu time spent up to now is        3.5 secs

     total energy              =     -36.86026856 Ry
     estimated scf accuracy    <       0.18368085 Ry

     iteration #  2     ecut=    45.00 Ry     beta= 0.70
     Davidson diagonalization with overlap
     ethr =  2.30E-03,  avg # of iterations =  3.4

     negative rho (up, down):  3.643E-05 0.000E+00

     total cpu time spent up to now is        4.9 secs

     total energy              =     -36.88638166 Ry
     estimated scf accuracy    <       0.00209740 Ry

     iteration #  3     ecut=    45.00 Ry     beta= 0.70
     Davidson diagonalization with overlap
     c_bands:  1 eigenvalues not converged
     ethr =  2.62E-05,  avg # of iterations =  9.8

     negative rho (up, down):  4.350E-05 0.000E+00

     total cpu time spent up to now is        7.2 secs

     total energy              =     -36.88660740 Ry
     estimated scf accuracy    <       0.00015510 Ry

     iteration #  4     ecut=    45.00 Ry     beta= 0.70
     Davidson diagonalization with overlap
     c_bands:  1 eigenvalues not converged
     ethr =  1.94E-06,  avg # of iterations =  4.5

     negative rho (up, down):  4.436E-05 0.000E+00

     total cpu time spent up to now is        8.8 secs

     total energy              =     -36.88661624 Ry
     estimated scf accuracy    <       0.00000114 Ry

     iteration #  5     ecut=    45.00 Ry     beta= 0.70
     Davidson diagonalization with overlap
     c_bands:  1 eigenvalues not converged
     ethr =  1.43E-08,  avg # of iterations =  3.9

     negative rho (up, down):  4.448E-05 0.000E+00

     total cpu time spent up to now is       10.4 secs

     total energy              =     -36.88661703 Ry
     estimated scf accuracy    <       0.00000002 Ry

     iteration #  6     ecut=    45.00 Ry     beta= 0.70
     Davidson diagonalization with overlap
     ethr =  3.04E-10,  avg # of iterations =  2.3

     negative rho (up, down):  4.454E-05 0.000E+00

     total cpu time spent up to now is       11.9 secs

     End of self-consistent calculation

          k = 0.0000 0.0000 0.0000 (  2641 PWs)   bands (ev):

   -21.1414  -9.2631  -4.8485  -4.8485   1.5075   2.3960   2.8079   4.7451

          k = 0.0000 0.0825 0.0000 (  2687 PWs)   bands (ev):

   -21.0225  -9.1216  -5.3296  -5.0961   1.6691   2.5588   2.9721   4.9066

          k = 0.0000 0.1650 0.0000 (  2709 PWs)   bands (ev):

   -20.6666  -8.6998  -6.5868  -5.7107   2.1539   3.0464   3.4647   5.3898

          k = 0.0000 0.2474 0.0000 (  2717 PWs)   bands (ev):

   -20.0769  -8.2752  -8.0073  -6.4555   2.9610   3.8539   4.2853   6.1122

          k = 0.0000 0.3299 0.0000 (  2729 PWs)   bands (ev):

   -19.2594 -10.1278  -7.1521  -7.0655   4.0869   4.3021   5.0427   5.4274

          k = 0.0000 0.4124 0.0000 (  2724 PWs)   bands (ev):

   -18.2254 -11.9796  -7.6992  -5.9258   2.4048   5.4689   5.7073   6.4606

          k = 0.0000 0.4949 0.0000 (  2748 PWs)   bands (ev):

   -17.0075 -13.7153  -8.0439  -4.7449   0.7045   5.4485   7.2981   8.2126

          k = 0.0000-0.5774 0.0000 (  2762 PWs)   bands (ev):

   -16.0003 -14.8992  -8.1612  -4.1055  -0.1162   5.3867   9.2589   9.4077

          k = 0.0714 0.1237 0.0000 (  2713 PWs)   bands (ev):

   -20.7851  -8.8399  -6.1349  -5.5918   1.9924   2.8840   3.3005   5.2289

          k = 0.0714 0.2062 0.0000 (  2709 PWs)   bands (ev):

   -20.3123  -8.2823  -7.5023  -6.3796   2.6387   3.5327   3.9575   5.8697

          k = 0.0714 0.2887 0.0000 (  2724 PWs)   bands (ev):

   -19.6087  -9.2081  -7.4632  -7.1673   3.6062   4.4846   4.9421   5.1875

          k = 0.0714 0.3712 0.0000 (  2731 PWs)   bands (ev):

   -18.6825 -11.0286  -7.8220  -6.4147   3.2785   4.8895   5.8096   6.2082

          k = 0.0714 0.4536 0.0000 (  2742 PWs)   bands (ev):

   -17.5519 -12.8121  -8.2827  -5.2211   1.4588   6.0386   6.5194   7.4025

          k = 0.0714 0.5361 0.0000 (  2750 PWs)   bands (ev):

   -16.3012 -14.4039  -8.5194  -4.1837   0.0837   5.9313   8.3943   9.2668

          k = 0.1429 0.2474 0.0000 (  2729 PWs)   bands (ev):

   -19.7256  -8.6695  -7.5969  -7.4308   3.4460   4.3402   4.7789   5.4951

          k = 0.1429 0.3299 0.0000 (  2750 PWs)   bands (ev):

   -18.9131 -10.1473  -8.3754  -6.6643   3.8578   4.5725   5.4653   5.9275

          k = 0.1429 0.4124 0.0000 (  2753 PWs)   bands (ev):

   -17.8875 -11.8165  -9.0307  -5.5320   2.1293   6.0108   6.8892   7.3847

          k = 0.1429 0.4949 0.0000 (  2749 PWs)   bands (ev):

   -16.6834 -13.4648  -9.4158  -4.3421   0.5387   7.3635   7.7787   8.5574

          k = 0.1429 0.5774 0.0000 (  2745 PWs)   bands (ev):

   -15.6927 -14.6117  -9.5435  -3.6735  -0.2711   7.3150   9.6680   9.8494

          k = 0.2143 0.3712 0.0000 (  2755 PWs)   bands (ev):

   -18.0005 -11.1788  -9.6171  -5.6394   2.4126   5.8533   6.7083   7.2393

          k = 0.2143 0.4536 0.0000 (  2761 PWs)   bands (ev):

   -16.8928 -12.4986 -10.4208  -4.4553   0.9195   7.4342   8.1543   8.8692

          k = 0.2143 0.5361 0.0000 (  2759 PWs)   bands (ev):

   -15.6770 -13.9051 -10.7660  -3.3574  -0.3451   9.1396   9.2438   9.3423

          k = 0.2857 0.4949 0.0000 (  2767 PWs)   bands (ev):

   -15.7418 -13.2547 -11.5384  -3.2624  -0.3203   8.9150   9.1130  10.6385

          k = 0.2857 0.5774 0.0000 (  2779 PWs)   bands (ev):

   -14.7730 -14.0901 -11.9241  -2.3933  -1.1992   8.8933  10.6736  10.7065

     the Fermi energy is    -1.7741 ev

!    total energy              =     -36.88661704 Ry
     total all-electron energy =      -152.414813 Ry
     estimated scf accuracy    <          5.2E-10 Ry
     smearing contrib. (-TS)   =      -0.00000000 Ry
     internal energy E=F+TS    =     -36.88661704 Ry

     The total energy is F=E-TS. E is the sum of the following terms:
     one-electron contribution =    -153.19715319 Ry
     hartree contribution      =      78.20070814 Ry
     xc contribution           =      -9.24093890 Ry
     ewald contribution        =      59.68301699 Ry
     one-center paw contrib.   =     -12.33225008 Ry

     convergence has been achieved in   6 iterations

     Writing all to output data dir ./tmp/graphene.save/ :
     XML data file, charge density, pseudopotentials, collected wavefunctions

     init_run     :      1.76s CPU      1.49s WALL (       1 calls)
     electrons    :     17.71s CPU     10.32s WALL (       1 calls)

     Called by init_run:
     wfcinit      :      0.79s CPU      0.47s WALL (       1 calls)
     potinit      :      0.32s CPU      0.34s WALL (       1 calls)
     hinit0       :      0.57s CPU      0.58s WALL (       1 calls)

     Called by electrons:
     c_bands      :     13.68s CPU      7.33s WALL (       6 calls)
     sum_band     :      2.35s CPU      1.39s WALL (       6 calls)
     v_of_rho     :      0.80s CPU      0.73s WALL (       7 calls)
     newd         :      0.33s CPU      0.42s WALL (       7 calls)
     PAW_pot      :      0.54s CPU      0.54s WALL (       7 calls)
     mix_rho      :      0.12s CPU      0.06s WALL (       6 calls)

     Called by c_bands:
     init_us_2    :      0.31s CPU      0.19s WALL (     312 calls)
     cegterg      :     13.20s CPU      7.07s WALL (     144 calls)

     Called by *egterg:
     cdiaghg      :      0.27s CPU      0.12s WALL (     850 calls)
     h_psi        :     12.40s CPU      6.84s WALL (     874 calls)
     s_psi        :      0.11s CPU      0.07s WALL (     874 calls)
     g_psi        :      0.10s CPU      0.04s WALL (     706 calls)

     Called by h_psi:
     h_psi:calbec :      0.23s CPU      0.12s WALL (     874 calls)
     vloc_psi     :     11.83s CPU      6.48s WALL (     874 calls)
     add_vuspsi   :      0.27s CPU      0.20s WALL (     874 calls)

     General routines
     calbec       :      0.26s CPU      0.14s WALL (    1018 calls)
     fft          :      0.75s CPU      0.69s WALL (      89 calls)
     ffts         :      0.17s CPU      0.17s WALL (      13 calls)
     fftw         :      9.77s CPU      5.64s WALL (    8682 calls)
     interpolate  :      0.18s CPU      0.19s WALL (       7 calls)


     PWSCF        :     19.69s CPU     11.96s WALL


   This run was terminated on:  17: 2:35   9Sep2025            

=------------------------------------------------------------------------------=
   JOB DONE.
=------------------------------------------------------------------------------=
