
     Program PWSCF v.7.4.1 starts on  9Sep2025 at  8: 6:36 

     This program is part of the open-source Quantum ESPRESSO suite
     for quantum simulation of materials; please cite
         "P. Giannozzi et al., J. Phys.:Condens. Matter 21 395502 (2009);
         "P. Giannozzi et al., J. Phys.:Condens. Matter 29 465901 (2017);
         "P. Giannozzi et al., J. Chem. Phys. 152 154105 (2020);
          URL http://www.quantum-espresso.org", 
     in publications or presentations arising from this work. More details at
     http://www.quantum-espresso.org/quote

     Serial version
     8563 MiB available memory on the printing compute node when the environment starts

     Waiting for input...
     Reading input from standard input

     Current dimensions of program PWSCF are:
     Max number of different atomic species (ntypx) = 10
     Max number of k-points (npk) =  40000
     Max angular momentum in pseudopotentials (lmaxx) =  4
     file C.pbe-n-kjpaw_psl.1.0.0.UPF: wavefunction(s)  2S 2P renormalized


     G-vector sticks info
     --------------------
     sticks:   dense  smooth     PW     G-vecs:    dense   smooth      PW
     Sum        1039     421    121               163837    41657    6983

     Using Slab Decomposition



     bravais-lattice index     =            4
     lattice parameter (alat)  =       4.6540  a.u.
     unit-cell volume          =     523.7946 (a.u.)^3
     number of atoms/cell      =            2
     number of atomic types    =            1
     number of electrons       =         8.00
     number of Kohn-Sham states=            8
     kinetic-energy cutoff     =      70.0000  Ry
     charge density cutoff     =     700.0000  Ry
     scf convergence threshold =      1.0E-08
     mixing beta               =       0.7000
     number of iterations used =            8  plain     mixing
     Exchange-correlation= SLA  PW   PBX  PBC
                           (   1   4   3   4   0   0   0)

     celldm(1)=   4.654000  celldm(2)=   0.000000  celldm(3)=   6.000000
     celldm(4)=   0.000000  celldm(5)=   0.000000  celldm(6)=   0.000000

     crystal axes: (cart. coord. in units of alat)
               a(1) = (   1.000000   0.000000   0.000000 )  
               a(2) = (  -0.500000   0.866025   0.000000 )  
               a(3) = (   0.000000   0.000000   6.000000 )  

     reciprocal axes: (cart. coord. in units 2 pi/alat)
               b(1) = (  1.000000  0.577350 -0.000000 )  
               b(2) = (  0.000000  1.154701  0.000000 )  
               b(3) = (  0.000000 -0.000000  0.166667 )  


     PseudoPot. # 1 for C  read from file:
     ../../../../pseudos/C.pbe-n-kjpaw_psl.1.0.0.UPF
     MD5 check sum: 5d2aebdfa2cae82b50a7e79e9516da0f
     Pseudo is Projector augmented-wave + core cor, Zval =  4.0
     Generated using "atomic" code by A. Dal Corso  v.5.1
     Shape of augmentation charge: PSQ
     Using radial grid of 1073 points,  4 beta functions with: 
                l(1) =   0
                l(2) =   0
                l(3) =   1
                l(4) =   1
     Q(r) pseudized with 0 coefficients 


     atomic species   valence    mass     pseudopotential
     C                 4.00    12.01070     C ( 1.00)

     24 Sym. Ops., with inversion, found (12 have fractional translation)



   Cartesian axes

     site n.     atom                  positions (alat units)
         1        C      tau(   1) = (   0.0000000   0.0000000   0.0000000  )
         2        C      tau(   2) = (   0.0000000   0.5773503   0.0000000  )

     number of k points=    12  Gaussian smearing, width (Ry)=  0.0100
                       cart. coord. in units 2pi/alat
        k(    1) = (   0.0000000   0.0000000   0.0000000), wk =   0.0246914
        k(    2) = (   0.0000000   0.1283001   0.0000000), wk =   0.1481481
        k(    3) = (   0.0000000   0.2566001   0.0000000), wk =   0.1481481
        k(    4) = (   0.0000000   0.3849002   0.0000000), wk =   0.1481481
        k(    5) = (   0.0000000   0.5132002   0.0000000), wk =   0.1481481
        k(    6) = (   0.1111111   0.1924501   0.0000000), wk =   0.1481481
        k(    7) = (   0.1111111   0.3207501   0.0000000), wk =   0.2962963
        k(    8) = (   0.1111111   0.4490502   0.0000000), wk =   0.2962963
        k(    9) = (   0.1111111   0.5773503   0.0000000), wk =   0.1481481
        k(   10) = (   0.2222222   0.3849002   0.0000000), wk =   0.1481481
        k(   11) = (   0.2222222   0.5132002   0.0000000), wk =   0.2962963
        k(   12) = (   0.3333333   0.5773503   0.0000000), wk =   0.0493827

     Dense  grid:   163837 G-vectors     FFT dimensions: (  45,  45, 240)

     Smooth grid:    41657 G-vectors     FFT dimensions: (  27,  27, 150)

     Estimated max dynamical RAM per process >     223.15 MB

     Initial potential from superposition of free atoms

     starting charge       7.9999, renormalised to       8.0000

     negative rho (up, down):  2.129E-05 0.000E+00
     Starting wfcs are    8 randomized atomic wfcs

     total cpu time spent up to now is        2.1 secs

     Self-consistent Calculation

     iteration #  1     ecut=    70.00 Ry     beta= 0.70
     Davidson diagonalization with overlap
     ethr =  1.00E-02,  avg # of iterations =  5.8

     negative rho (up, down):  2.227E-05 0.000E+00

     total cpu time spent up to now is        4.4 secs

     total energy              =     -36.86019316 Ry
     estimated scf accuracy    <       0.19341488 Ry

     iteration #  2     ecut=    70.00 Ry     beta= 0.70
     Davidson diagonalization with overlap
     ethr =  2.42E-03,  avg # of iterations =  2.6

     negative rho (up, down):  2.875E-05 0.000E+00

     total cpu time spent up to now is        6.0 secs

     total energy              =     -36.88656422 Ry
     estimated scf accuracy    <       0.00195067 Ry

     iteration #  3     ecut=    70.00 Ry     beta= 0.70
     Davidson diagonalization with overlap
     ethr =  2.44E-05,  avg # of iterations = 10.9

     negative rho (up, down):  3.396E-05 0.000E+00

     total cpu time spent up to now is        8.7 secs

     total energy              =     -36.88686986 Ry
     estimated scf accuracy    <       0.00015345 Ry

     iteration #  4     ecut=    70.00 Ry     beta= 0.70
     Davidson diagonalization with overlap
     ethr =  1.92E-06,  avg # of iterations =  3.8

     negative rho (up, down):  3.453E-05 0.000E+00

     total cpu time spent up to now is       10.8 secs

     total energy              =     -36.88688333 Ry
     estimated scf accuracy    <       0.00000240 Ry

     iteration #  5     ecut=    70.00 Ry     beta= 0.70
     Davidson diagonalization with overlap
     ethr =  3.01E-08,  avg # of iterations =  2.9

     negative rho (up, down):  3.458E-05 0.000E+00

     total cpu time spent up to now is       13.0 secs

     total energy              =     -36.88688448 Ry
     estimated scf accuracy    <       0.00000007 Ry

     iteration #  6     ecut=    70.00 Ry     beta= 0.70
     Davidson diagonalization with overlap
     ethr =  8.98E-10,  avg # of iterations =  2.4

     negative rho (up, down):  3.459E-05 0.000E+00

     total cpu time spent up to now is       15.0 secs

     End of self-consistent calculation

          k = 0.0000 0.0000 0.0000 (  5211 PWs)   bands (ev):

   -21.2249  -9.3141  -4.7174  -4.7174   1.5583   2.4639   2.9108   4.8764

          k = 0.0000 0.1283 0.0000 (  5169 PWs)   bands (ev):

   -20.9331  -8.9652  -5.8344  -5.2917   1.9559   2.8645   3.3149   5.2736

          k = 0.0000 0.2566 0.0000 (  5167 PWs)   bands (ev):

   -20.0633  -8.3879  -7.9363  -6.4501   3.1473   4.0580   4.5269   6.2850

          k = 0.0000 0.3849 0.0000 (  5187 PWs)   bands (ev):

   -18.6365 -11.3231  -7.4731  -6.3079   3.2613   5.1178   6.0770   6.0897

          k = 0.0000 0.5132 0.0000 (  5180 PWs)   bands (ev):

   -16.7289 -14.0719  -8.0382  -4.4603   0.5582   5.7958   7.8840   8.8203

          k = 0.1111 0.1925 0.0000 (  5158 PWs)   bands (ev):

   -20.3523  -8.2755  -7.3929  -6.4396   2.7512   3.6633   4.1236   6.0648

          k = 0.1111 0.3208 0.0000 (  5181 PWs)   bands (ev):

   -19.2039  -9.8467  -7.8265  -6.9371   4.3374   4.5160   5.2689   5.7396

          k = 0.1111 0.4491 0.0000 (  5193 PWs)   bands (ev):

   -17.5257 -12.6109  -8.7088  -5.1059   1.6670   6.6811   7.1705   7.6087

          k = 0.1111 0.5774 0.0000 (  5200 PWs)   bands (ev):

   -15.7804 -14.7578  -9.0092  -3.7667  -0.0609   6.9967   9.7011   9.8668

          k = 0.2222 0.3849 0.0000 (  5166 PWs)   bands (ev):

   -17.8014 -11.3642  -9.8444  -5.3521   2.2963   6.3077   7.1655   7.7582

          k = 0.2222 0.5132 0.0000 (  5182 PWs)   bands (ev):

   -15.9489 -13.4817 -10.8449  -3.4720   0.0524   8.9909   9.2227   9.8719

          k = 0.3333 0.5774 0.0000 (  5178 PWs)   bands (ev):

   -14.2868 -14.2868 -12.2664  -1.6640  -1.6640   8.9578  11.2413  11.2413

     the Fermi energy is    -1.6640 ev

!    total energy              =     -36.88688450 Ry
     total all-electron energy =      -152.415080 Ry
     estimated scf accuracy    <          6.6E-10 Ry
     smearing contrib. (-TS)   =      -0.00027861 Ry
     internal energy E=F+TS    =     -36.88660589 Ry

     The total energy is F=E-TS. E is the sum of the following terms:
     one-electron contribution =    -154.20765303 Ry
     hartree contribution      =      78.73938944 Ry
     xc contribution           =      -9.28004087 Ry
     ewald contribution        =      60.19597803 Ry
     one-center paw contrib.   =     -12.33427947 Ry

     convergence has been achieved in   6 iterations

     Writing all to output data dir ./tmp/graphene.save/ :
     XML data file, charge density, pseudopotentials, collected wavefunctions

     init_run     :      2.28s CPU      2.00s WALL (       1 calls)
     electrons    :     20.40s CPU     12.84s WALL (       1 calls)

     Called by init_run:
     wfcinit      :      0.91s CPU      0.55s WALL (       1 calls)
     potinit      :      0.48s CPU      0.52s WALL (       1 calls)
     hinit0       :      0.73s CPU      0.74s WALL (       1 calls)

     Called by electrons:
     c_bands      :     15.29s CPU      8.32s WALL (       6 calls)
     sum_band     :      2.92s CPU      2.01s WALL (       6 calls)
     v_of_rho     :      1.13s CPU      1.31s WALL (       7 calls)
     newd         :      0.63s CPU      0.83s WALL (       7 calls)
     PAW_pot      :      0.52s CPU      0.53s WALL (       7 calls)
     mix_rho      :      0.10s CPU      0.10s WALL (       6 calls)

     Called by c_bands:
     init_us_2    :      0.29s CPU      0.19s WALL (     156 calls)
     cegterg      :     14.84s CPU      8.08s WALL (      72 calls)

     Called by *egterg:
     cdiaghg      :      0.15s CPU      0.06s WALL (     413 calls)
     h_psi        :     14.18s CPU      7.99s WALL (     425 calls)
     s_psi        :      0.12s CPU      0.05s WALL (     425 calls)
     g_psi        :      0.11s CPU      0.04s WALL (     341 calls)

     Called by h_psi:
     h_psi:calbec :      0.21s CPU      0.11s WALL (     425 calls)
     vloc_psi     :     13.67s CPU      7.73s WALL (     425 calls)
     add_vuspsi   :      0.23s CPU      0.12s WALL (     425 calls)

     General routines
     calbec       :      0.24s CPU      0.13s WALL (     497 calls)
     fft          :      1.10s CPU      1.10s WALL (      89 calls)
     ffts         :      0.25s CPU      0.25s WALL (      13 calls)
     fftw         :     10.60s CPU      6.31s WALL (    4430 calls)
     interpolate  :      0.29s CPU      0.29s WALL (       7 calls)


     PWSCF        :     22.89s CPU     15.00s WALL


   This run was terminated on:   8: 6:51   9Sep2025            

=------------------------------------------------------------------------------=
   JOB DONE.
=------------------------------------------------------------------------------=
