
     Program PWSCF v.7.4.1 starts on  9Sep2025 at 17: 0:29 

     This program is part of the open-source Quantum ESPRESSO suite
     for quantum simulation of materials; please cite
         "P. Giannozzi et al., J. Phys.:Condens. Matter 21 395502 (2009);
         "P. Giannozzi et al., J. Phys.:Condens. Matter 29 465901 (2017);
         "P. Giannozzi et al., J. Chem. Phys. 152 154105 (2020);
          URL http://www.quantum-espresso.org", 
     in publications or presentations arising from this work. More details at
     http://www.quantum-espresso.org/quote

     Serial version
     22178 MiB available memory on the printing compute node when the environment starts

     Waiting for input...
     Reading input from standard input

     Current dimensions of program PWSCF are:
     Max number of different atomic species (ntypx) = 10
     Max number of k-points (npk) =  40000
     Max angular momentum in pseudopotentials (lmaxx) =  4
     file C.pbe-n-kjpaw_psl.1.0.0.UPF: wavefunction(s)  2S 2P renormalized


     G-vector sticks info
     --------------------
     sticks:   dense  smooth     PW     G-vecs:    dense   smooth      PW
     Sum         673     271     85                86543    21859    3847

     Using Slab Decomposition



     bravais-lattice index     =            4
     lattice parameter (alat)  =       4.6940  a.u.
     unit-cell volume          =     537.4167 (a.u.)^3
     number of atoms/cell      =            2
     number of atomic types    =            1
     number of electrons       =         8.00
     number of Kohn-Sham states=            8
     kinetic-energy cutoff     =      45.0000  Ry
     charge density cutoff     =     450.0000  Ry
     scf convergence threshold =      1.0E-08
     mixing beta               =       0.7000
     number of iterations used =            8  plain     mixing
     Exchange-correlation= SLA  PW   PBX  PBC
                           (   1   4   3   4   0   0   0)

     celldm(1)=   4.694000  celldm(2)=   0.000000  celldm(3)=   6.000000
     celldm(4)=   0.000000  celldm(5)=   0.000000  celldm(6)=   0.000000

     crystal axes: (cart. coord. in units of alat)
               a(1) = (   1.000000   0.000000   0.000000 )  
               a(2) = (  -0.500000   0.866025   0.000000 )  
               a(3) = (   0.000000   0.000000   6.000000 )  

     reciprocal axes: (cart. coord. in units 2 pi/alat)
               b(1) = (  1.000000  0.577350 -0.000000 )  
               b(2) = (  0.000000  1.154701  0.000000 )  
               b(3) = (  0.000000 -0.000000  0.166667 )  


     PseudoPot. # 1 for C  read from file:
     ../../../../../pseudos/C.pbe-n-kjpaw_psl.1.0.0.UPF
     MD5 check sum: 5d2aebdfa2cae82b50a7e79e9516da0f
     Pseudo is Projector augmented-wave + core cor, Zval =  4.0
     Generated using "atomic" code by A. Dal Corso  v.5.1
     Shape of augmentation charge: PSQ
     Using radial grid of 1073 points,  4 beta functions with: 
                l(1) =   0
                l(2) =   0
                l(3) =   1
                l(4) =   1
     Q(r) pseudized with 0 coefficients 


     atomic species   valence    mass     pseudopotential
     C                 4.00    12.01070     C ( 1.00)

     24 Sym. Ops., with inversion, found (12 have fractional translation)



   Cartesian axes

     site n.     atom                  positions (alat units)
         1        C      tau(   1) = (   0.0000000   0.0000000   0.0000000  )
         2        C      tau(   2) = (   0.0000000   0.5773503   0.0000000  )

     number of k points=     4  Gaussian smearing, width (Ry)=  0.0100
                       cart. coord. in units 2pi/alat
        k(    1) = (   0.0000000   0.0000000   0.0000000), wk =   0.1250000
        k(    2) = (   0.0000000   0.2886751   0.0000000), wk =   0.7500000
        k(    3) = (   0.0000000  -0.5773503   0.0000000), wk =   0.3750000
        k(    4) = (   0.2500000   0.4330127   0.0000000), wk =   0.7500000

     Dense  grid:    86543 G-vectors     FFT dimensions: (  36,  36, 192)

     Smooth grid:    21859 G-vectors     FFT dimensions: (  24,  24, 125)

     Estimated max dynamical RAM per process >     114.83 MB

     Initial potential from superposition of free atoms

     starting charge       7.9999, renormalised to       8.0000

     negative rho (up, down):  1.080E-05 0.000E+00
     Starting wfcs are    8 randomized atomic wfcs

     total cpu time spent up to now is        1.3 secs

     Self-consistent Calculation

     iteration #  1     ecut=    45.00 Ry     beta= 0.70
     Davidson diagonalization with overlap
     ethr =  1.00E-02,  avg # of iterations =  4.8

     negative rho (up, down):  2.667E-05 0.000E+00

     total cpu time spent up to now is        1.8 secs

     total energy              =     -36.86244675 Ry
     estimated scf accuracy    <       0.18465593 Ry

     iteration #  2     ecut=    45.00 Ry     beta= 0.70
     Davidson diagonalization with overlap
     ethr =  2.31E-03,  avg # of iterations =  2.0

     negative rho (up, down):  3.773E-05 0.000E+00

     total cpu time spent up to now is        2.3 secs

     total energy              =     -36.88859948 Ry
     estimated scf accuracy    <       0.00216193 Ry

     iteration #  3     ecut=    45.00 Ry     beta= 0.70
     Davidson diagonalization with overlap
     ethr =  2.70E-05,  avg # of iterations =  8.2

     negative rho (up, down):  4.377E-05 0.000E+00

     total cpu time spent up to now is        2.9 secs

     total energy              =     -36.88881242 Ry
     estimated scf accuracy    <       0.00016575 Ry

     iteration #  4     ecut=    45.00 Ry     beta= 0.70
     Davidson diagonalization with overlap
     ethr =  2.07E-06,  avg # of iterations =  2.5

     negative rho (up, down):  4.452E-05 0.000E+00

     total cpu time spent up to now is        3.4 secs

     total energy              =     -36.88882184 Ry
     estimated scf accuracy    <       0.00000127 Ry

     iteration #  5     ecut=    45.00 Ry     beta= 0.70
     Davidson diagonalization with overlap
     ethr =  1.58E-08,  avg # of iterations =  2.5

     negative rho (up, down):  4.462E-05 0.000E+00

     total cpu time spent up to now is        3.8 secs

     total energy              =     -36.88882269 Ry
     estimated scf accuracy    <       0.00000004 Ry

     iteration #  6     ecut=    45.00 Ry     beta= 0.70
     Davidson diagonalization with overlap
     ethr =  5.57E-10,  avg # of iterations =  2.0

     negative rho (up, down):  4.468E-05 0.000E+00

     total cpu time spent up to now is        4.3 secs

     End of self-consistent calculation

          k = 0.0000 0.0000 0.0000 (  2641 PWs)   bands (ev):

   -21.1330  -9.2582  -4.8367  -4.8367   1.5068   2.3956   2.8074   4.7448

          k = 0.0000 0.2887 0.0000 (  2725 PWs)   bands (ev):

   -19.6876  -9.1828  -7.5603  -6.8066   3.4838   4.3632   4.8173   5.3386

          k = 0.0000-0.5774 0.0000 (  2762 PWs)   bands (ev):

   -15.9910 -14.8902  -8.1505  -4.0994  -0.1104   5.3945   9.2583   9.4075

          k = 0.2500 0.4330 0.0000 (  2763 PWs)   bands (ev):

   -16.9105 -12.2718 -10.6360  -4.4653   0.9838   7.3947   8.0994   8.8312

     the Fermi energy is    -1.7051 ev

!    total energy              =     -36.88882270 Ry
     total all-electron energy =      -152.417018 Ry
     estimated scf accuracy    <          5.3E-10 Ry
     smearing contrib. (-TS)   =      -0.00000000 Ry
     internal energy E=F+TS    =     -36.88882270 Ry

     The total energy is F=E-TS. E is the sum of the following terms:
     one-electron contribution =    -153.20402425 Ry
     hartree contribution      =      78.20621778 Ry
     xc contribution           =      -9.24272912 Ry
     ewald contribution        =      59.68301699 Ry
     one-center paw contrib.   =     -12.33130410 Ry

     convergence has been achieved in   6 iterations

     Writing all to output data dir ./tmp/graphene.save/ :
     XML data file, charge density, pseudopotentials, collected wavefunctions

     init_run     :      1.17s CPU      1.15s WALL (       1 calls)
     electrons    :      4.46s CPU      3.04s WALL (       1 calls)

     Called by init_run:
     wfcinit      :      0.20s CPU      0.14s WALL (       1 calls)
     potinit      :      0.32s CPU      0.34s WALL (       1 calls)
     hinit0       :      0.58s CPU      0.58s WALL (       1 calls)

     Called by electrons:
     c_bands      :      1.77s CPU      0.97s WALL (       6 calls)
     sum_band     :      1.20s CPU      0.68s WALL (       6 calls)
     v_of_rho     :      0.73s CPU      0.63s WALL (       7 calls)
     newd         :      0.29s CPU      0.37s WALL (       7 calls)
     PAW_pot      :      0.48s CPU      0.49s WALL (       7 calls)
     mix_rho      :      0.11s CPU      0.06s WALL (       6 calls)

     Called by c_bands:
     init_us_2    :      0.04s CPU      0.03s WALL (      52 calls)
     cegterg      :      1.71s CPU      0.93s WALL (      24 calls)

     Called by *egterg:
     cdiaghg      :      0.04s CPU      0.01s WALL (     112 calls)
     h_psi        :      1.68s CPU      0.98s WALL (     116 calls)
     s_psi        :      0.02s CPU      0.01s WALL (     116 calls)
     g_psi        :      0.02s CPU      0.01s WALL (      88 calls)

     Called by h_psi:
     h_psi:calbec :      0.04s CPU      0.02s WALL (     116 calls)
     vloc_psi     :      1.59s CPU      0.93s WALL (     116 calls)
     add_vuspsi   :      0.04s CPU      0.03s WALL (     116 calls)

     General routines
     calbec       :      0.05s CPU      0.02s WALL (     140 calls)
     fft          :      0.74s CPU      0.67s WALL (      89 calls)
     ffts         :      0.17s CPU      0.17s WALL (      13 calls)
     fftw         :      1.31s CPU      0.82s WALL (    1380 calls)
     interpolate  :      0.18s CPU      0.18s WALL (       7 calls)


     PWSCF        :      5.84s CPU      4.33s WALL


   This run was terminated on:  17: 0:33   9Sep2025            

=------------------------------------------------------------------------------=
   JOB DONE.
=------------------------------------------------------------------------------=
