
     Program PWSCF v.7.4.1 starts on  9Sep2025 at 17: 1:49 

     This program is part of the open-source Quantum ESPRESSO suite
     for quantum simulation of materials; please cite
         "P. Giannozzi et al., J. Phys.:Condens. Matter 21 395502 (2009);
         "P. Giannozzi et al., J. Phys.:Condens. Matter 29 465901 (2017);
         "P. Giannozzi et al., J. Chem. Phys. 152 154105 (2020);
          URL http://www.quantum-espresso.org", 
     in publications or presentations arising from this work. More details at
     http://www.quantum-espresso.org/quote

     Serial version
     22067 MiB available memory on the printing compute node when the environment starts

     Waiting for input...
     Reading input from standard input

     Current dimensions of program PWSCF are:
     Max number of different atomic species (ntypx) = 10
     Max number of k-points (npk) =  40000
     Max angular momentum in pseudopotentials (lmaxx) =  4
     file C.pbe-n-kjpaw_psl.1.0.0.UPF: wavefunction(s)  2S 2P renormalized


     G-vector sticks info
     --------------------
     sticks:   dense  smooth     PW     G-vecs:    dense   smooth      PW
     Sum         673     271     85                86543    21859    3919

     Using Slab Decomposition



     bravais-lattice index     =            4
     lattice parameter (alat)  =       4.6940  a.u.
     unit-cell volume          =     537.4167 (a.u.)^3
     number of atoms/cell      =            2
     number of atomic types    =            1
     number of electrons       =         8.00
     number of Kohn-Sham states=            8
     kinetic-energy cutoff     =      45.0000  Ry
     charge density cutoff     =     450.0000  Ry
     scf convergence threshold =      1.0E-08
     mixing beta               =       0.7000
     number of iterations used =            8  plain     mixing
     Exchange-correlation= SLA  PW   PBX  PBC
                           (   1   4   3   4   0   0   0)

     celldm(1)=   4.694000  celldm(2)=   0.000000  celldm(3)=   6.000000
     celldm(4)=   0.000000  celldm(5)=   0.000000  celldm(6)=   0.000000

     crystal axes: (cart. coord. in units of alat)
               a(1) = (   1.000000   0.000000   0.000000 )  
               a(2) = (  -0.500000   0.866025   0.000000 )  
               a(3) = (   0.000000   0.000000   6.000000 )  

     reciprocal axes: (cart. coord. in units 2 pi/alat)
               b(1) = (  1.000000  0.577350 -0.000000 )  
               b(2) = (  0.000000  1.154701  0.000000 )  
               b(3) = (  0.000000 -0.000000  0.166667 )  


     PseudoPot. # 1 for C  read from file:
     ../../../../../pseudos/C.pbe-n-kjpaw_psl.1.0.0.UPF
     MD5 check sum: 5d2aebdfa2cae82b50a7e79e9516da0f
     Pseudo is Projector augmented-wave + core cor, Zval =  4.0
     Generated using "atomic" code by A. Dal Corso  v.5.1
     Shape of augmentation charge: PSQ
     Using radial grid of 1073 points,  4 beta functions with: 
                l(1) =   0
                l(2) =   0
                l(3) =   1
                l(4) =   1
     Q(r) pseudized with 0 coefficients 


     atomic species   valence    mass     pseudopotential
     C                 4.00    12.01070     C ( 1.00)

     24 Sym. Ops., with inversion, found (12 have fractional translation)



   Cartesian axes

     site n.     atom                  positions (alat units)
         1        C      tau(   1) = (   0.0000000   0.0000000   0.0000000  )
         2        C      tau(   2) = (   0.0000000   0.5773503   0.0000000  )

     number of k points=    16  Gaussian smearing, width (Ry)=  0.0100
                       cart. coord. in units 2pi/alat
        k(    1) = (   0.0000000   0.0000000   0.0000000), wk =   0.0165289
        k(    2) = (   0.0000000   0.1049728   0.0000000), wk =   0.0991736
        k(    3) = (   0.0000000   0.2099456   0.0000000), wk =   0.0991736
        k(    4) = (   0.0000000   0.3149183   0.0000000), wk =   0.0991736
        k(    5) = (   0.0000000   0.4198911   0.0000000), wk =   0.0991736
        k(    6) = (   0.0000000   0.5248639   0.0000000), wk =   0.0991736
        k(    7) = (   0.0909091   0.1574592   0.0000000), wk =   0.0991736
        k(    8) = (   0.0909091   0.2624319   0.0000000), wk =   0.1983471
        k(    9) = (   0.0909091   0.3674047   0.0000000), wk =   0.1983471
        k(   10) = (   0.0909091   0.4723775   0.0000000), wk =   0.1983471
        k(   11) = (   0.0909091   0.5773503   0.0000000), wk =   0.0991736
        k(   12) = (   0.1818182   0.3149183   0.0000000), wk =   0.0991736
        k(   13) = (   0.1818182   0.4198911   0.0000000), wk =   0.1983471
        k(   14) = (   0.1818182   0.5248639   0.0000000), wk =   0.1983471
        k(   15) = (   0.2727273   0.4723775   0.0000000), wk =   0.0991736
        k(   16) = (   0.2727273   0.5773503   0.0000000), wk =   0.0991736

     Dense  grid:    86543 G-vectors     FFT dimensions: (  36,  36, 192)

     Smooth grid:    21859 G-vectors     FFT dimensions: (  24,  24, 125)

     Estimated max dynamical RAM per process >     118.84 MB

     Initial potential from superposition of free atoms

     starting charge       7.9999, renormalised to       8.0000

     negative rho (up, down):  1.080E-05 0.000E+00
     Starting wfcs are    8 randomized atomic wfcs

     total cpu time spent up to now is        1.5 secs

     Self-consistent Calculation

     iteration #  1     ecut=    45.00 Ry     beta= 0.70
     Davidson diagonalization with overlap
     ethr =  1.00E-02,  avg # of iterations =  5.2

     negative rho (up, down):  2.528E-05 0.000E+00

     total cpu time spent up to now is        2.9 secs

     total energy              =     -36.86013702 Ry
     estimated scf accuracy    <       0.18392449 Ry

     iteration #  2     ecut=    45.00 Ry     beta= 0.70
     Davidson diagonalization with overlap
     ethr =  2.30E-03,  avg # of iterations =  3.1

     negative rho (up, down):  3.604E-05 0.000E+00

     total cpu time spent up to now is        3.8 secs

     total energy              =     -36.88638757 Ry
     estimated scf accuracy    <       0.00210622 Ry

     iteration #  3     ecut=    45.00 Ry     beta= 0.70
     Davidson diagonalization with overlap
     ethr =  2.63E-05,  avg # of iterations =  9.4

     negative rho (up, down):  4.350E-05 0.000E+00

     total cpu time spent up to now is        5.4 secs

     total energy              =     -36.88660993 Ry
     estimated scf accuracy    <       0.00015606 Ry

     iteration #  4     ecut=    45.00 Ry     beta= 0.70
     Davidson diagonalization with overlap
     ethr =  1.95E-06,  avg # of iterations =  4.1

     negative rho (up, down):  4.437E-05 0.000E+00

     total cpu time spent up to now is        6.3 secs

     total energy              =     -36.88661837 Ry
     estimated scf accuracy    <       0.00000109 Ry

     iteration #  5     ecut=    45.00 Ry     beta= 0.70
     Davidson diagonalization with overlap
     ethr =  1.36E-08,  avg # of iterations =  3.2

     negative rho (up, down):  4.449E-05 0.000E+00

     total cpu time spent up to now is        7.3 secs

     total energy              =     -36.88661917 Ry
     estimated scf accuracy    <       0.00000002 Ry

     iteration #  6     ecut=    45.00 Ry     beta= 0.70
     Davidson diagonalization with overlap
     ethr =  2.71E-10,  avg # of iterations =  2.8

     negative rho (up, down):  4.454E-05 0.000E+00

     total cpu time spent up to now is        8.3 secs

     End of self-consistent calculation

          k = 0.0000 0.0000 0.0000 (  2641 PWs)   bands (ev):

   -21.1411  -9.2629  -4.8482  -4.8482   1.5075   2.3961   2.8079   4.7451

          k = 0.0000 0.1050 0.0000 (  2699 PWs)   bands (ev):

   -20.9485  -9.0339  -5.6097  -5.2370   1.7693   2.6597   3.0739   5.0065

          k = 0.0000 0.2099 0.0000 (  2711 PWs)   bands (ev):

   -20.3734  -8.3544  -7.4738  -6.1139   2.5543   3.4481   3.8717   5.7846

          k = 0.0000 0.3149 0.0000 (  2727 PWs)   bands (ev):

   -19.4243  -9.7869  -7.2534  -7.0341   3.8589   4.5600   4.9065   5.1977

          k = 0.0000 0.4199 0.0000 (  2728 PWs)   bands (ev):

   -18.1211 -12.1436  -7.7391  -5.8159   2.2358   5.5375   5.7652   6.6075

          k = 0.0000 0.5249 0.0000 (  2752 PWs)   bands (ev):

   -16.5454 -14.2816  -8.1132  -4.3935   0.2463   5.4123   8.0058   8.9191

          k = 0.0909 0.1575 0.0000 (  2727 PWs)   bands (ev):

   -20.5647  -8.5794  -6.7792  -6.0156   2.2930   3.1860   3.6059   5.5279

          k = 0.0909 0.2624 0.0000 (  2717 PWs)   bands (ev):

   -19.8025  -8.6775  -7.6870  -7.1096   3.3390   4.2311   4.6700   5.6369

          k = 0.0909 0.3674 0.0000 (  2736 PWs)   bands (ev):

   -18.6757 -10.9291  -8.0084  -6.4044   3.3099   4.9003   5.8123   6.2553

          k = 0.0909 0.4724 0.0000 (  2746 PWs)   bands (ev):

   -17.2196 -13.1621  -8.5788  -4.8888   1.0580   6.3186   6.9901   7.8657

          k = 0.0909 0.5774 0.0000 (  2747 PWs)   bands (ev):

   -15.8754 -14.7796  -8.7734  -3.9300  -0.1674   6.2264   9.4272   9.5881

          k = 0.1818 0.3149 0.0000 (  2747 PWs)   bands (ev):

   -18.8624 -10.0779  -8.6233  -6.6054   3.8007   4.6432   5.5288   5.9999

          k = 0.1818 0.4199 0.0000 (  2750 PWs)   bands (ev):

   -17.5766 -11.9103  -9.6918  -5.1852   1.7653   6.4534   7.2921   7.8545

          k = 0.1818 0.5249 0.0000 (  2761 PWs)   bands (ev):

   -16.0330 -13.8609 -10.1643  -3.7268  -0.0453   8.3188   8.7560   9.2194

          k = 0.2727 0.4724 0.0000 (  2759 PWs)   bands (ev):

   -16.1759 -12.9164 -11.2350  -3.7002   0.1336   8.4747   8.7722   9.9623

          k = 0.2727 0.5774 0.0000 (  2781 PWs)   bands (ev):

   -14.8813 -14.0966 -11.7618  -2.5434  -1.0629   8.9526  10.5257  10.5814

     the Fermi energy is    -1.7817 ev

!    total energy              =     -36.88661918 Ry
     total all-electron energy =      -152.414815 Ry
     estimated scf accuracy    <          7.6E-10 Ry
     smearing contrib. (-TS)   =      -0.00000000 Ry
     internal energy E=F+TS    =     -36.88661918 Ry

     The total energy is F=E-TS. E is the sum of the following terms:
     one-electron contribution =    -153.19726541 Ry
     hartree contribution      =      78.20083885 Ry
     xc contribution           =      -9.24096009 Ry
     ewald contribution        =      59.68301699 Ry
     one-center paw contrib.   =     -12.33224953 Ry

     convergence has been achieved in   6 iterations

     Writing all to output data dir ./tmp/graphene.save/ :
     XML data file, charge density, pseudopotentials, collected wavefunctions

     init_run     :      1.52s CPU      1.37s WALL (       1 calls)
     electrons    :     11.56s CPU      6.79s WALL (       1 calls)

     Called by init_run:
     wfcinit      :      0.56s CPU      0.36s WALL (       1 calls)
     potinit      :      0.31s CPU      0.34s WALL (       1 calls)
     hinit0       :      0.57s CPU      0.58s WALL (       1 calls)

     Called by electrons:
     c_bands      :      8.21s CPU      4.39s WALL (       6 calls)
     sum_band     :      1.87s CPU      1.00s WALL (       6 calls)
     v_of_rho     :      0.76s CPU      0.66s WALL (       7 calls)
     newd         :      0.28s CPU      0.38s WALL (       7 calls)
     PAW_pot      :      0.46s CPU      0.46s WALL (       7 calls)
     mix_rho      :      0.10s CPU      0.05s WALL (       6 calls)

     Called by c_bands:
     init_us_2    :      0.24s CPU      0.14s WALL (     208 calls)
     cegterg      :      7.89s CPU      4.22s WALL (      96 calls)

     Called by *egterg:
     cdiaghg      :      0.17s CPU      0.07s WALL (     540 calls)
     h_psi        :      7.39s CPU      4.06s WALL (     556 calls)
     s_psi        :      0.07s CPU      0.04s WALL (     556 calls)
     g_psi        :      0.07s CPU      0.03s WALL (     444 calls)

     Called by h_psi:
     h_psi:calbec :      0.16s CPU      0.08s WALL (     556 calls)
     vloc_psi     :      7.00s CPU      3.87s WALL (     556 calls)
     add_vuspsi   :      0.18s CPU      0.10s WALL (     556 calls)

     General routines
     calbec       :      0.19s CPU      0.09s WALL (     652 calls)
     fft          :      0.74s CPU      0.66s WALL (      89 calls)
     ffts         :      0.18s CPU      0.17s WALL (      13 calls)
     fftw         :      5.81s CPU      3.34s WALL (    5722 calls)
     interpolate  :      0.18s CPU      0.18s WALL (       7 calls)


     PWSCF        :     13.31s CPU      8.32s WALL


   This run was terminated on:  17: 1:57   9Sep2025            

=------------------------------------------------------------------------------=
   JOB DONE.
=------------------------------------------------------------------------------=
