
     Program PWSCF v.7.4.1 starts on  9Sep2025 at 16:51:52 

     This program is part of the open-source Quantum ESPRESSO suite
     for quantum simulation of materials; please cite
         "P. Giannozzi et al., J. Phys.:Condens. Matter 21 395502 (2009);
         "P. Giannozzi et al., J. Phys.:Condens. Matter 29 465901 (2017);
         "P. Giannozzi et al., J. Chem. Phys. 152 154105 (2020);
          URL http://www.quantum-espresso.org", 
     in publications or presentations arising from this work. More details at
     http://www.quantum-espresso.org/quote

     Serial version
     22148 MiB available memory on the printing compute node when the environment starts

     Waiting for input...
     Reading input from standard input

     Current dimensions of program PWSCF are:
     Max number of different atomic species (ntypx) = 10
     Max number of k-points (npk) =  40000
     Max angular momentum in pseudopotentials (lmaxx) =  4
     file C.pbe-n-kjpaw_psl.1.0.0.UPF: wavefunction(s)  2S 2P renormalized


     G-vector sticks info
     --------------------
     sticks:   dense  smooth     PW     G-vecs:    dense   smooth      PW
     Sum         673     265     85                84597    21311    3919

     Using Slab Decomposition



     bravais-lattice index     =            4
     lattice parameter (alat)  =       4.6540  a.u.
     unit-cell volume          =     523.7946 (a.u.)^3
     number of atoms/cell      =            2
     number of atomic types    =            1
     number of electrons       =         8.00
     number of Kohn-Sham states=            8
     kinetic-energy cutoff     =      45.0000  Ry
     charge density cutoff     =     450.0000  Ry
     scf convergence threshold =      1.0E-08
     mixing beta               =       0.7000
     number of iterations used =            8  plain     mixing
     Exchange-correlation= SLA  PW   PBX  PBC
                           (   1   4   3   4   0   0   0)

     celldm(1)=   4.654000  celldm(2)=   0.000000  celldm(3)=   6.000000
     celldm(4)=   0.000000  celldm(5)=   0.000000  celldm(6)=   0.000000

     crystal axes: (cart. coord. in units of alat)
               a(1) = (   1.000000   0.000000   0.000000 )  
               a(2) = (  -0.500000   0.866025   0.000000 )  
               a(3) = (   0.000000   0.000000   6.000000 )  

     reciprocal axes: (cart. coord. in units 2 pi/alat)
               b(1) = (  1.000000  0.577350 -0.000000 )  
               b(2) = (  0.000000  1.154701  0.000000 )  
               b(3) = (  0.000000 -0.000000  0.166667 )  


     PseudoPot. # 1 for C  read from file:
     ../../../../../pseudos/C.pbe-n-kjpaw_psl.1.0.0.UPF
     MD5 check sum: 5d2aebdfa2cae82b50a7e79e9516da0f
     Pseudo is Projector augmented-wave + core cor, Zval =  4.0
     Generated using "atomic" code by A. Dal Corso  v.5.1
     Shape of augmentation charge: PSQ
     Using radial grid of 1073 points,  4 beta functions with: 
                l(1) =   0
                l(2) =   0
                l(3) =   1
                l(4) =   1
     Q(r) pseudized with 0 coefficients 


     atomic species   valence    mass     pseudopotential
     C                 4.00    12.01070     C ( 1.00)

     24 Sym. Ops., with inversion, found (12 have fractional translation)



   Cartesian axes

     site n.     atom                  positions (alat units)
         1        C      tau(   1) = (   0.0000000   0.0000000   0.0000000  )
         2        C      tau(   2) = (   0.0000000   0.5773503   0.0000000  )

     number of k points=    27  Gaussian smearing, width (Ry)=  0.0100
                       cart. coord. in units 2pi/alat
        k(    1) = (   0.0000000   0.0000000   0.0000000), wk =   0.0088889
        k(    2) = (   0.0000000   0.0769800   0.0000000), wk =   0.0533333
        k(    3) = (   0.0000000   0.1539601   0.0000000), wk =   0.0533333
        k(    4) = (   0.0000000   0.2309401   0.0000000), wk =   0.0533333
        k(    5) = (   0.0000000   0.3079201   0.0000000), wk =   0.0533333
        k(    6) = (   0.0000000   0.3849002   0.0000000), wk =   0.0533333
        k(    7) = (   0.0000000   0.4618802   0.0000000), wk =   0.0533333
        k(    8) = (   0.0000000   0.5388603   0.0000000), wk =   0.0533333
        k(    9) = (   0.0666667   0.1154701   0.0000000), wk =   0.0533333
        k(   10) = (   0.0666667   0.1924501   0.0000000), wk =   0.1066667
        k(   11) = (   0.0666667   0.2694301   0.0000000), wk =   0.1066667
        k(   12) = (   0.0666667   0.3464102   0.0000000), wk =   0.1066667
        k(   13) = (   0.0666667   0.4233902   0.0000000), wk =   0.1066667
        k(   14) = (   0.0666667   0.5003702   0.0000000), wk =   0.1066667
        k(   15) = (   0.0666667   0.5773503   0.0000000), wk =   0.0533333
        k(   16) = (   0.1333333   0.2309401   0.0000000), wk =   0.0533333
        k(   17) = (   0.1333333   0.3079201   0.0000000), wk =   0.1066667
        k(   18) = (   0.1333333   0.3849002   0.0000000), wk =   0.1066667
        k(   19) = (   0.1333333   0.4618802   0.0000000), wk =   0.1066667
        k(   20) = (   0.1333333   0.5388603   0.0000000), wk =   0.1066667
        k(   21) = (   0.2000000   0.3464102   0.0000000), wk =   0.0533333
        k(   22) = (   0.2000000   0.4233902   0.0000000), wk =   0.1066667
        k(   23) = (   0.2000000   0.5003702   0.0000000), wk =   0.1066667
        k(   24) = (   0.2000000   0.5773503   0.0000000), wk =   0.0533333
        k(   25) = (   0.2666667   0.4618802   0.0000000), wk =   0.0533333
        k(   26) = (   0.2666667   0.5388603   0.0000000), wk =   0.1066667
        k(   27) = (   0.3333333   0.5773503   0.0000000), wk =   0.0177778

     Dense  grid:    84597 G-vectors     FFT dimensions: (  36,  36, 192)

     Smooth grid:    21311 G-vectors     FFT dimensions: (  24,  24, 120)

     Estimated max dynamical RAM per process >     120.13 MB

     Initial potential from superposition of free atoms

     starting charge       7.9999, renormalised to       8.0000

     negative rho (up, down):  1.033E-05 0.000E+00
     Starting wfcs are    8 randomized atomic wfcs

     total cpu time spent up to now is        2.0 secs

     Self-consistent Calculation

     iteration #  1     ecut=    45.00 Ry     beta= 0.70
     Davidson diagonalization with overlap
     ethr =  1.00E-02,  avg # of iterations =  5.4

     negative rho (up, down):  2.494E-05 0.000E+00

     total cpu time spent up to now is        3.9 secs

     total energy              =     -36.85797713 Ry
     estimated scf accuracy    <       0.19765611 Ry

     iteration #  2     ecut=    45.00 Ry     beta= 0.70
     Davidson diagonalization with overlap
     ethr =  2.47E-03,  avg # of iterations =  3.5

     negative rho (up, down):  3.607E-05 0.000E+00

     total cpu time spent up to now is        5.2 secs

     total energy              =     -36.88657636 Ry
     estimated scf accuracy    <       0.00216127 Ry

     iteration #  3     ecut=    45.00 Ry     beta= 0.70
     Davidson diagonalization with overlap
     c_bands:  1 eigenvalues not converged
     ethr =  2.70E-05,  avg # of iterations = 10.1

     negative rho (up, down):  4.386E-05 0.000E+00

     total cpu time spent up to now is        7.5 secs

     total energy              =     -36.88682444 Ry
     estimated scf accuracy    <       0.00015905 Ry

     iteration #  4     ecut=    45.00 Ry     beta= 0.70
     Davidson diagonalization with overlap
     ethr =  1.99E-06,  avg # of iterations =  3.2

     negative rho (up, down):  4.484E-05 0.000E+00

     total cpu time spent up to now is        9.1 secs

     total energy              =     -36.88683378 Ry
     estimated scf accuracy    <       0.00000114 Ry

     iteration #  5     ecut=    45.00 Ry     beta= 0.70
     Davidson diagonalization with overlap
     ethr =  1.43E-08,  avg # of iterations =  3.0

     negative rho (up, down):  4.499E-05 0.000E+00

     total cpu time spent up to now is       10.8 secs

     total energy              =     -36.88683452 Ry
     estimated scf accuracy    <       0.00000002 Ry

     iteration #  6     ecut=    45.00 Ry     beta= 0.70
     Davidson diagonalization with overlap
     ethr =  2.89E-10,  avg # of iterations =  2.6

     negative rho (up, down):  4.505E-05 0.000E+00

     total cpu time spent up to now is       12.4 secs

     End of self-consistent calculation

          k = 0.0000 0.0000 0.0000 (  2603 PWs)   bands (ev):

   -21.2248  -9.3131  -4.7172  -4.7172   1.5498   2.4487   2.8672   4.8427

          k = 0.0000 0.0770 0.0000 (  2615 PWs)   bands (ev):

   -21.1197  -9.1872  -5.1421  -4.9402   1.6930   2.5930   3.0127   4.9858

          k = 0.0000 0.1540 0.0000 (  2637 PWs)   bands (ev):

   -20.8047  -8.8115  -6.2715  -5.5056   2.1225   3.0254   3.4490   5.4142

          k = 0.0000 0.2309 0.0000 (  2637 PWs)   bands (ev):

   -20.2824  -8.1932  -7.8210  -6.2125   2.8378   3.7430   4.1761   6.1165

          k = 0.0000 0.3079 0.0000 (  2651 PWs)   bands (ev):

   -19.5570  -9.5552  -7.3473  -6.9005   3.8368   4.6894   5.1922   5.2077

          k = 0.0000 0.3849 0.0000 (  2674 PWs)   bands (ev):

   -18.6360 -11.3224  -7.4729  -6.3072   3.2615   5.1110   6.0630   6.0887

          k = 0.0000 0.4619 0.0000 (  2666 PWs)   bands (ev):

   -17.5353 -13.0234  -7.8766  -5.1595   1.5081   5.8692   6.7014   7.6219

          k = 0.0000 0.5389 0.0000 (  2682 PWs)   bands (ev):

   -16.3320 -14.5368  -8.0844  -4.1997   0.2257   5.7738   8.5112   9.4394

          k = 0.0667 0.1155 0.0000 (  2637 PWs)   bands (ev):

   -20.9096  -8.9364  -5.8676  -5.3867   1.9794   2.8814   3.3036   5.2717

          k = 0.0667 0.1925 0.0000 (  2648 PWs)   bands (ev):

   -20.4910  -8.4391  -7.1175  -6.1142   2.5521   3.4568   3.8856   5.8410

          k = 0.0667 0.2694 0.0000 (  2656 PWs)   bands (ev):

   -19.8671  -8.7007  -7.7058  -6.8720   3.4099   4.3123   4.7581   5.9152

          k = 0.0667 0.3464 0.0000 (  2662 PWs)   bands (ev):

   -19.0438 -10.4207  -7.5335  -6.7585   4.1029   4.5496   5.4895   5.9173

          k = 0.0667 0.4234 0.0000 (  2673 PWs)   bands (ev):

   -18.0317 -12.1408  -8.0366  -5.6482   2.3117   5.9511   6.4657   6.9024

          k = 0.0667 0.5004 0.0000 (  2674 PWs)   bands (ev):

   -16.8607 -13.7598  -8.3490  -4.5278   0.7411   6.2790   7.6763   8.5839

          k = 0.0667 0.5774 0.0000 (  2671 PWs)   bands (ev):

   -15.9001 -14.8734  -8.4546  -3.9371  -0.0059   6.2286   9.5337   9.6865

          k = 0.1333 0.2309 0.0000 (  2651 PWs)   bands (ev):

   -19.9709  -8.2182  -7.8261  -7.0777   3.2677   4.1738   4.6134   6.2168

          k = 0.1333 0.3079 0.0000 (  2662 PWs)   bands (ev):

   -19.2490  -9.6136  -7.9845  -6.9874   4.2672   4.6518   5.1812   5.6315

          k = 0.1333 0.3849 0.0000 (  2677 PWs)   bands (ev):

   -18.3338 -11.2056  -8.6591  -5.9543   2.9788   5.5459   6.4502   6.9368

          k = 0.1333 0.4619 0.0000 (  2687 PWs)   bands (ev):

   -17.2426 -12.8189  -9.1041  -4.8065   1.3457   7.0846   7.6282   7.9737

          k = 0.1333 0.5389 0.0000 (  2689 PWs)   bands (ev):

   -16.0546 -14.2857  -9.3264  -3.8244   0.1026   7.4978   8.9133   9.6341

          k = 0.2000 0.3464 0.0000 (  2671 PWs)   bands (ev):

   -18.4351 -10.6276  -9.1587  -6.0583   3.2526   5.4054   6.2916   6.7945

          k = 0.2000 0.4234 0.0000 (  2680 PWs)   bands (ev):

   -17.4384 -11.9120  -9.9793  -4.9619   1.7722   6.8165   7.6437   8.2438

          k = 0.2000 0.5004 0.0000 (  2691 PWs)   bands (ev):

   -16.2926 -13.3393 -10.4063  -3.8220   0.3792   8.4759   9.0434   9.2807

          k = 0.2000 0.5774 0.0000 (  2701 PWs)   bands (ev):

   -15.3605 -14.3812 -10.5391  -3.1711  -0.3608   9.2028   9.6745  10.2407

          k = 0.2667 0.4619 0.0000 (  2707 PWs)   bands (ev):

   -16.3808 -12.6936 -11.1054  -3.8349   0.5234   8.3415   8.8071   9.8308

          k = 0.2667 0.5389 0.0000 (  2705 PWs)   bands (ev):

   -15.2417 -13.7414 -11.6470  -2.7516  -0.6151   9.1535  10.0425  10.9425

          k = 0.3333 0.5774 0.0000 (  2721 PWs)   bands (ev):

   -14.2863 -14.2863 -12.2652  -1.6636  -1.6636   8.9591  11.2407  11.2410

     the Fermi energy is    -1.6636 ev

!    total energy              =     -36.88683453 Ry
     total all-electron energy =      -152.415030 Ry
     estimated scf accuracy    <          7.1E-10 Ry
     smearing contrib. (-TS)   =      -0.00010030 Ry
     internal energy E=F+TS    =     -36.88673423 Ry

     The total energy is F=E-TS. E is the sum of the following terms:
     one-electron contribution =    -154.20855281 Ry
     hartree contribution      =      78.73901821 Ry
     xc contribution           =      -9.27927916 Ry
     ewald contribution        =      60.19597803 Ry
     one-center paw contrib.   =     -12.33389850 Ry

     convergence has been achieved in   6 iterations

     Writing all to output data dir ./tmp/graphene.save/ :
     XML data file, charge density, pseudopotentials, collected wavefunctions

     init_run     :      2.26s CPU      1.92s WALL (       1 calls)
     electrons    :     17.91s CPU     10.36s WALL (       1 calls)

     Called by init_run:
     wfcinit      :      1.06s CPU      0.67s WALL (       1 calls)
     potinit      :      0.55s CPU      0.57s WALL (       1 calls)
     hinit0       :      0.58s CPU      0.58s WALL (       1 calls)

     Called by electrons:
     c_bands      :     14.06s CPU      7.48s WALL (       6 calls)
     sum_band     :      2.26s CPU      1.37s WALL (       6 calls)
     v_of_rho     :      0.79s CPU      0.70s WALL (       7 calls)
     newd         :      0.31s CPU      0.41s WALL (       7 calls)
     PAW_pot      :      0.51s CPU      0.51s WALL (       7 calls)
     mix_rho      :      0.11s CPU      0.06s WALL (       6 calls)

     Called by c_bands:
     init_us_2    :      0.34s CPU      0.20s WALL (     351 calls)
     cegterg      :     13.54s CPU      7.20s WALL (     162 calls)

     Called by *egterg:
     cdiaghg      :      0.27s CPU      0.12s WALL (     913 calls)
     h_psi        :     12.92s CPU      7.15s WALL (     940 calls)
     s_psi        :      0.13s CPU      0.06s WALL (     940 calls)
     g_psi        :      0.11s CPU      0.04s WALL (     751 calls)

     Called by h_psi:
     h_psi:calbec :      0.26s CPU      0.12s WALL (     940 calls)
     vloc_psi     :     12.30s CPU      6.80s WALL (     940 calls)
     add_vuspsi   :      0.28s CPU      0.19s WALL (     940 calls)

     General routines
     calbec       :      0.30s CPU      0.15s WALL (    1102 calls)
     fft          :      0.74s CPU      0.68s WALL (      89 calls)
     ffts         :      0.40s CPU      0.40s WALL (      13 calls)
     fftw         :     10.00s CPU      5.89s WALL (    9682 calls)
     interpolate  :      0.42s CPU      0.42s WALL (       7 calls)


     PWSCF        :     20.41s CPU     12.44s WALL


   This run was terminated on:  16:52: 4   9Sep2025            

=------------------------------------------------------------------------------=
   JOB DONE.
=------------------------------------------------------------------------------=
