
     Program PWSCF v.7.4.1 starts on  9Sep2025 at  8:34:59 

     This program is part of the open-source Quantum ESPRESSO suite
     for quantum simulation of materials; please cite
         "P. Giannozzi et al., J. Phys.:Condens. Matter 21 395502 (2009);
         "P. Giannozzi et al., J. Phys.:Condens. Matter 29 465901 (2017);
         "P. Giannozzi et al., J. Chem. Phys. 152 154105 (2020);
          URL http://www.quantum-espresso.org", 
     in publications or presentations arising from this work. More details at
     http://www.quantum-espresso.org/quote

     Serial version
     8270 MiB available memory on the printing compute node when the environment starts

     Waiting for input...
     Reading input from standard input

     Current dimensions of program PWSCF are:
     Max number of different atomic species (ntypx) = 10
     Max number of k-points (npk) =  40000
     Max angular momentum in pseudopotentials (lmaxx) =  4
     file C.pbe-n-kjpaw_psl.1.0.0.UPF: wavefunction(s)  2S 2P renormalized


     G-vector sticks info
     --------------------
     sticks:   dense  smooth     PW     G-vecs:    dense   smooth      PW
     Sum         517     211     73                59087    15017    2845

     Using Slab Decomposition



     bravais-lattice index     =            4
     lattice parameter (alat)  =       4.6940  a.u.
     unit-cell volume          =     537.4167 (a.u.)^3
     number of atoms/cell      =            2
     number of atomic types    =            1
     number of electrons       =         8.00
     number of Kohn-Sham states=            8
     kinetic-energy cutoff     =      35.0000  Ry
     charge density cutoff     =     350.0000  Ry
     scf convergence threshold =      1.0E-08
     mixing beta               =       0.7000
     number of iterations used =            8  plain     mixing
     Exchange-correlation= SLA  PW   PBX  PBC
                           (   1   4   3   4   0   0   0)

     celldm(1)=   4.694000  celldm(2)=   0.000000  celldm(3)=   6.000000
     celldm(4)=   0.000000  celldm(5)=   0.000000  celldm(6)=   0.000000

     crystal axes: (cart. coord. in units of alat)
               a(1) = (   1.000000   0.000000   0.000000 )  
               a(2) = (  -0.500000   0.866025   0.000000 )  
               a(3) = (   0.000000   0.000000   6.000000 )  

     reciprocal axes: (cart. coord. in units 2 pi/alat)
               b(1) = (  1.000000  0.577350 -0.000000 )  
               b(2) = (  0.000000  1.154701  0.000000 )  
               b(3) = (  0.000000 -0.000000  0.166667 )  


     PseudoPot. # 1 for C  read from file:
     ../../../../../pseudos/C.pbe-n-kjpaw_psl.1.0.0.UPF
     MD5 check sum: 5d2aebdfa2cae82b50a7e79e9516da0f
     Pseudo is Projector augmented-wave + core cor, Zval =  4.0
     Generated using "atomic" code by A. Dal Corso  v.5.1
     Shape of augmentation charge: PSQ
     Using radial grid of 1073 points,  4 beta functions with: 
                l(1) =   0
                l(2) =   0
                l(3) =   1
                l(4) =   1
     Q(r) pseudized with 0 coefficients 


     atomic species   valence    mass     pseudopotential
     C                 4.00    12.01070     C ( 1.00)

     24 Sym. Ops., with inversion, found (12 have fractional translation)



   Cartesian axes

     site n.     atom                  positions (alat units)
         1        C      tau(   1) = (   0.0000000   0.0000000   0.0000000  )
         2        C      tau(   2) = (   0.0000000   0.5773503   0.0000000  )

     number of k points=    12  Gaussian smearing, width (Ry)=  0.0100
                       cart. coord. in units 2pi/alat
        k(    1) = (   0.0000000   0.0000000   0.0000000), wk =   0.0246914
        k(    2) = (   0.0000000   0.1283001   0.0000000), wk =   0.1481481
        k(    3) = (   0.0000000   0.2566001   0.0000000), wk =   0.1481481
        k(    4) = (   0.0000000   0.3849002   0.0000000), wk =   0.1481481
        k(    5) = (   0.0000000   0.5132002   0.0000000), wk =   0.1481481
        k(    6) = (   0.1111111   0.1924501   0.0000000), wk =   0.1481481
        k(    7) = (   0.1111111   0.3207501   0.0000000), wk =   0.2962963
        k(    8) = (   0.1111111   0.4490502   0.0000000), wk =   0.2962963
        k(    9) = (   0.1111111   0.5773503   0.0000000), wk =   0.1481481
        k(   10) = (   0.2222222   0.3849002   0.0000000), wk =   0.1481481
        k(   11) = (   0.2222222   0.5132002   0.0000000), wk =   0.2962963
        k(   12) = (   0.3333333   0.5773503   0.0000000), wk =   0.0493827

     Dense  grid:    59087 G-vectors     FFT dimensions: (  27,  27, 180)

     Smooth grid:    15017 G-vectors     FFT dimensions: (  18,  18, 108)

     Estimated max dynamical RAM per process >      77.68 MB

     Check: negative core charge=   -0.000005

     Initial potential from superposition of free atoms

     starting charge       7.9999, renormalised to       8.0000

     negative rho (up, down):  9.284E-05 0.000E+00
     Starting wfcs are    8 randomized atomic wfcs

     total cpu time spent up to now is        1.4 secs

     Self-consistent Calculation

     iteration #  1     ecut=    35.00 Ry     beta= 0.70
     Davidson diagonalization with overlap
     ethr =  1.00E-02,  avg # of iterations =  6.0

     negative rho (up, down):  1.599E-04 0.000E+00

     total cpu time spent up to now is        2.2 secs

     total energy              =     -36.85437327 Ry
     estimated scf accuracy    <       0.18487577 Ry

     iteration #  2     ecut=    35.00 Ry     beta= 0.70
     Davidson diagonalization with overlap
     ethr =  2.31E-03,  avg # of iterations =  2.8

     negative rho (up, down):  1.889E-04 0.000E+00

     total cpu time spent up to now is        2.7 secs

     total energy              =     -36.88152796 Ry
     estimated scf accuracy    <       0.00225213 Ry

     iteration #  3     ecut=    35.00 Ry     beta= 0.70
     Davidson diagonalization with overlap
     ethr =  2.82E-05,  avg # of iterations =  9.5

     negative rho (up, down):  2.058E-04 0.000E+00

     total cpu time spent up to now is        3.5 secs

     total energy              =     -36.88172462 Ry
     estimated scf accuracy    <       0.00016359 Ry

     iteration #  4     ecut=    35.00 Ry     beta= 0.70
     Davidson diagonalization with overlap
     ethr =  2.04E-06,  avg # of iterations =  3.4

     negative rho (up, down):  2.062E-04 0.000E+00

     total cpu time spent up to now is        4.1 secs

     total energy              =     -36.88173175 Ry
     estimated scf accuracy    <       0.00000098 Ry

     iteration #  5     ecut=    35.00 Ry     beta= 0.70
     Davidson diagonalization with overlap
     ethr =  1.23E-08,  avg # of iterations =  3.0

     negative rho (up, down):  2.063E-04 0.000E+00

     total cpu time spent up to now is        4.6 secs

     total energy              =     -36.88173241 Ry
     estimated scf accuracy    <       0.00000002 Ry

     iteration #  6     ecut=    35.00 Ry     beta= 0.70
     Davidson diagonalization with overlap
     ethr =  2.54E-10,  avg # of iterations =  2.3

     negative rho (up, down):  2.064E-04 0.000E+00

     total cpu time spent up to now is        5.1 secs

     End of self-consistent calculation

          k = 0.0000 0.0000 0.0000 (  1919 PWs)   bands (ev):

   -21.1473  -9.2638  -4.8429  -4.8429   1.4125   2.2397   2.5064   4.5052

          k = 0.0000 0.1283 0.0000 (  1913 PWs)   bands (ev):

   -20.8597  -8.9217  -5.9499  -5.4028   1.8051   2.6346   2.9026   4.8951

          k = 0.0000 0.2566 0.0000 (  1896 PWs)   bands (ev):

   -20.0029  -8.4745  -7.9144  -6.5317   2.9818   3.8125   4.0910   5.9379

          k = 0.0000 0.3849 0.0000 (  1874 PWs)   bands (ev):

   -18.5984 -11.3715  -7.5299  -6.3214   3.0420   4.9283   5.7195   5.7998

          k = 0.0000 0.5132 0.0000 (  1866 PWs)   bands (ev):

   -16.7285 -14.0719  -8.0854  -4.5182   0.4115   5.4231   7.6574   8.5122

          k = 0.1111 0.1925 0.0000 (  1887 PWs)   bands (ev):

   -20.2876  -8.2462  -7.4948  -6.5206   2.5904   3.4225   3.6956   5.6713

          k = 0.1111 0.3208 0.0000 (  1886 PWs)   bands (ev):

   -19.1566  -9.9208  -7.8816  -6.9364   4.1567   4.2588   5.0043   5.2800

          k = 0.1111 0.4491 0.0000 (  1867 PWs)   bands (ev):

   -17.5063 -12.6426  -8.7486  -5.1466   1.4847   6.4672   6.7914   7.3212

          k = 0.1111 0.5774 0.0000 (  1858 PWs)   bands (ev):

   -15.8190 -14.7255  -9.0441  -3.8417  -0.1953   6.6113   9.4606   9.6147

          k = 0.2222 0.3849 0.0000 (  1874 PWs)   bands (ev):

   -17.7764 -11.4365  -9.8524  -5.3861   2.0890   6.1026   6.8911   7.2584

          k = 0.2222 0.5132 0.0000 (  1876 PWs)   bands (ev):

   -15.9607 -13.5110 -10.8432  -3.5505  -0.1004   8.7548   9.0057   9.4580

          k = 0.3333 0.5774 0.0000 (  1872 PWs)   bands (ev):

   -14.3366 -14.3366 -12.2002  -1.7832  -1.7832   8.7955  10.9323  10.9325

     the Fermi energy is    -1.7832 ev

!    total energy              =     -36.88173242 Ry
     total all-electron energy =      -152.409928 Ry
     estimated scf accuracy    <          8.0E-10 Ry
     smearing contrib. (-TS)   =      -0.00027861 Ry
     internal energy E=F+TS    =     -36.88145380 Ry

     The total energy is F=E-TS. E is the sum of the following terms:
     one-electron contribution =    -153.18687554 Ry
     hartree contribution      =      78.19583182 Ry
     xc contribution           =      -9.24051191 Ry
     ewald contribution        =      59.68301699 Ry
     one-center paw contrib.   =     -12.33291516 Ry

     convergence has been achieved in   6 iterations

     Writing all to output data dir ./tmp/graphene.save/ :
     XML data file, charge density, pseudopotentials, collected wavefunctions

     init_run     :      1.31s CPU      1.26s WALL (       1 calls)
     electrons    :      5.96s CPU      3.74s WALL (       1 calls)

     Called by init_run:
     wfcinit      :      0.34s CPU      0.26s WALL (       1 calls)
     potinit      :      0.37s CPU      0.38s WALL (       1 calls)
     hinit0       :      0.55s CPU      0.56s WALL (       1 calls)

     Called by electrons:
     c_bands      :      3.53s CPU      1.97s WALL (       6 calls)
     sum_band     :      1.08s CPU      0.62s WALL (       6 calls)
     v_of_rho     :      0.73s CPU      0.49s WALL (       7 calls)
     newd         :      0.19s CPU      0.26s WALL (       7 calls)
     PAW_pot      :      0.47s CPU      0.49s WALL (       7 calls)
     mix_rho      :      0.07s CPU      0.04s WALL (       6 calls)

     Called by c_bands:
     init_us_2    :      0.12s CPU      0.07s WALL (     156 calls)
     cegterg      :      3.35s CPU      1.89s WALL (      72 calls)

     Called by *egterg:
     cdiaghg      :      0.11s CPU      0.05s WALL (     396 calls)
     h_psi        :      3.11s CPU      1.86s WALL (     408 calls)
     s_psi        :      0.06s CPU      0.03s WALL (     408 calls)
     g_psi        :      0.03s CPU      0.01s WALL (     324 calls)

     Called by h_psi:
     h_psi:calbec :      0.08s CPU      0.04s WALL (     408 calls)
     vloc_psi     :      2.91s CPU      1.71s WALL (     408 calls)
     add_vuspsi   :      0.11s CPU      0.10s WALL (     408 calls)

     General routines
     calbec       :      0.09s CPU      0.05s WALL (     480 calls)
     fft          :      0.69s CPU      0.61s WALL (      89 calls)
     ffts         :      0.23s CPU      0.23s WALL (      13 calls)
     fftw         :      2.64s CPU      1.61s WALL (    4228 calls)
     interpolate  :      0.24s CPU      0.24s WALL (       7 calls)


     PWSCF        :      7.45s CPU      5.15s WALL


   This run was terminated on:   8:35: 4   9Sep2025            

=------------------------------------------------------------------------------=
   JOB DONE.
=------------------------------------------------------------------------------=
