
     Program PWSCF v.7.4.1 starts on  9Sep2025 at 21:46:22 

     This program is part of the open-source Quantum ESPRESSO suite
     for quantum simulation of materials; please cite
         "P. Giannozzi et al., J. Phys.:Condens. Matter 21 395502 (2009);
         "P. Giannozzi et al., J. Phys.:Condens. Matter 29 465901 (2017);
         "P. Giannozzi et al., J. Chem. Phys. 152 154105 (2020);
          URL http://www.quantum-espresso.org", 
     in publications or presentations arising from this work. More details at
     http://www.quantum-espresso.org/quote

     Serial version
     4775 MiB available memory on the printing compute node when the environment starts

     Reading input from graphene_scf.in

     Current dimensions of program PWSCF are:
     Max number of different atomic species (ntypx) = 10
     Max number of k-points (npk) =  40000
     Max angular momentum in pseudopotentials (lmaxx) =  4
     file C.pbe-n-kjpaw_psl.1.0.0.UPF: wavefunction(s)  2S 2P renormalized


     G-vector sticks info
     --------------------
     sticks:   dense  smooth     PW     G-vecs:    dense   smooth      PW
     Sum         673     265     85                84753    21323    3919

     Using Slab Decomposition



     bravais-lattice index     =            4
     lattice parameter (alat)  =       4.6604  a.u.
     unit-cell volume          =     525.1250 (a.u.)^3
     number of atoms/cell      =            2
     number of atomic types    =            1
     number of electrons       =         8.00
     number of Kohn-Sham states=            8
     kinetic-energy cutoff     =      45.0000  Ry
     charge density cutoff     =     450.0000  Ry
     scf convergence threshold =      1.0E-10
     mixing beta               =       0.3000
     number of iterations used =            8  plain     mixing
     Exchange-correlation= SLA  PW   PBX  PBC
                           (   1   4   3   4   0   0   0)

     celldm(1)=   4.660415  celldm(2)=   0.000000  celldm(3)=   5.990434
     celldm(4)=   0.000000  celldm(5)=   0.000000  celldm(6)=   0.000000

     crystal axes: (cart. coord. in units of alat)
               a(1) = (   1.000000   0.000000   0.000000 )  
               a(2) = (  -0.500000   0.866025   0.000000 )  
               a(3) = (   0.000000   0.000000   5.990434 )  

     reciprocal axes: (cart. coord. in units 2 pi/alat)
               b(1) = (  1.000000  0.577350 -0.000000 )  
               b(2) = (  0.000000  1.154701  0.000000 )  
               b(3) = (  0.000000 -0.000000  0.166933 )  


     PseudoPot. # 1 for C  read from file:
     ../../pseudos/C.pbe-n-kjpaw_psl.1.0.0.UPF
     MD5 check sum: 5d2aebdfa2cae82b50a7e79e9516da0f
     Pseudo is Projector augmented-wave + core cor, Zval =  4.0
     Generated using "atomic" code by A. Dal Corso  v.5.1
     Shape of augmentation charge: PSQ
     Using radial grid of 1073 points,  4 beta functions with: 
                l(1) =   0
                l(2) =   0
                l(3) =   1
                l(4) =   1
     Q(r) pseudized with 0 coefficients 


     atomic species   valence    mass     pseudopotential
     C                 4.00    12.01070     C ( 1.00)

      4 Sym. Ops. (no inversion) found


                                    s                        frac. trans.

      isym =  1     identity                                     

 cryst.   s( 1) = (     1          0          0      )
                  (     0          1          0      )
                  (     0          0          1      )

 cart.    s( 1) = (  1.0000000  0.0000000  0.0000000 )
                  (  0.0000000  1.0000000  0.0000000 )
                  (  0.0000000  0.0000000  1.0000000 )


      isym =  2     180 deg rotation - cart. axis [0,1,0]        

 cryst.   s( 2) = (    -1          0          0      )
                  (     1          1          0      )
                  (     0          0         -1      )

 cart.    s( 2) = ( -1.0000000  0.0000000  0.0000000 )
                  (  0.0000000  1.0000000  0.0000000 )
                  (  0.0000000  0.0000000 -1.0000000 )


      isym =  3     inv. 180 deg rotation - cart. axis [0,0,1]   

 cryst.   s( 3) = (     1          0          0      )
                  (     0          1          0      )
                  (     0          0         -1      )

 cart.    s( 3) = (  1.0000000  0.0000000  0.0000000 )
                  (  0.0000000  1.0000000  0.0000000 )
                  (  0.0000000  0.0000000 -1.0000000 )


      isym =  4     inv. 180 deg rotation - cart. axis [1,0,0]   

 cryst.   s( 4) = (    -1          0          0      )
                  (     1          1          0      )
                  (     0          0          1      )

 cart.    s( 4) = ( -1.0000000  0.0000000  0.0000000 )
                  (  0.0000000  1.0000000  0.0000000 )
                  (  0.0000000  0.0000000  1.0000000 )


     point group C_2v (mm2) 
     there are  4 classes
     the character table:

       E     C2    s_v   s_v' 
A_1    1.00  1.00  1.00  1.00
A_2    1.00  1.00 -1.00 -1.00
B_1    1.00 -1.00  1.00 -1.00
B_2    1.00 -1.00 -1.00  1.00

     the symmetry operations in each class and the name of the first element:

     E        1
          identity                                               
     C2       2
          180 deg rotation - cart. axis [0,1,0]                  
     s_v      3
          inv. 180 deg rotation - cart. axis [0,0,1]             
     s_v'     4
          inv. 180 deg rotation - cart. axis [1,0,0]             

   Cartesian axes

     site n.     atom                  positions (alat units)
         1        C      tau(   1) = (   0.0000000   0.0000000   0.0000000  )
         2        C      tau(   2) = (   0.0000000   0.5783938   0.0000000  )

   Crystallographic axes

     site n.     atom                  positions (cryst. coord.)
         1        C      tau(   1) = (  0.0000000  0.0000000  0.0000000  )
         2        C      tau(   2) = (  0.3339358  0.6678717  0.0000000  )

     number of k points=   601  Gaussian smearing, width (Ry)=  0.0001
                       cart. coord. in units 2pi/alat
        k(    1) = (   0.0000000   0.0000000   0.0000000), wk =   0.0008681
        k(    2) = (   0.0000000   0.0240563   0.0000000), wk =   0.0017361
        k(    3) = (   0.0000000   0.0481125   0.0000000), wk =   0.0017361
        k(    4) = (   0.0000000   0.0721688   0.0000000), wk =   0.0017361
        k(    5) = (   0.0000000   0.0962250   0.0000000), wk =   0.0017361
        k(    6) = (   0.0000000   0.1202813   0.0000000), wk =   0.0017361
        k(    7) = (   0.0000000   0.1443376   0.0000000), wk =   0.0017361
        k(    8) = (   0.0000000   0.1683938   0.0000000), wk =   0.0017361
        k(    9) = (   0.0000000   0.1924501   0.0000000), wk =   0.0017361
        k(   10) = (   0.0000000   0.2165064   0.0000000), wk =   0.0017361
        k(   11) = (   0.0000000   0.2405626   0.0000000), wk =   0.0017361
        k(   12) = (   0.0000000   0.2646189   0.0000000), wk =   0.0017361
        k(   13) = (   0.0000000   0.2886751   0.0000000), wk =   0.0017361
        k(   14) = (   0.0000000   0.3127314   0.0000000), wk =   0.0017361
        k(   15) = (   0.0000000   0.3367877   0.0000000), wk =   0.0017361
        k(   16) = (   0.0000000   0.3608439   0.0000000), wk =   0.0017361
        k(   17) = (   0.0000000   0.3849002   0.0000000), wk =   0.0017361
        k(   18) = (   0.0000000   0.4089564   0.0000000), wk =   0.0017361
        k(   19) = (   0.0000000   0.4330127   0.0000000), wk =   0.0017361
        k(   20) = (   0.0000000   0.4570690   0.0000000), wk =   0.0017361
        k(   21) = (   0.0000000   0.4811252   0.0000000), wk =   0.0017361
        k(   22) = (   0.0000000   0.5051815   0.0000000), wk =   0.0017361
        k(   23) = (   0.0000000   0.5292377   0.0000000), wk =   0.0017361
        k(   24) = (   0.0000000   0.5532940   0.0000000), wk =   0.0017361
        k(   25) = (   0.0000000  -0.5773503   0.0000000), wk =   0.0008681
        k(   26) = (   0.0208333   0.0360844   0.0000000), wk =   0.0034722
        k(   27) = (   0.0208333   0.0601407   0.0000000), wk =   0.0034722
        k(   28) = (   0.0208333   0.0841969   0.0000000), wk =   0.0034722
        k(   29) = (   0.0208333   0.1082532   0.0000000), wk =   0.0034722
        k(   30) = (   0.0208333   0.1323094   0.0000000), wk =   0.0034722
        k(   31) = (   0.0208333   0.1563657   0.0000000), wk =   0.0034722
        k(   32) = (   0.0208333   0.1804220   0.0000000), wk =   0.0034722
        k(   33) = (   0.0208333   0.2044782   0.0000000), wk =   0.0034722
        k(   34) = (   0.0208333   0.2285345   0.0000000), wk =   0.0034722
        k(   35) = (   0.0208333   0.2525907   0.0000000), wk =   0.0034722
        k(   36) = (   0.0208333   0.2766470   0.0000000), wk =   0.0034722
        k(   37) = (   0.0208333   0.3007033   0.0000000), wk =   0.0034722
        k(   38) = (   0.0208333   0.3247595   0.0000000), wk =   0.0034722
        k(   39) = (   0.0208333   0.3488158   0.0000000), wk =   0.0034722
        k(   40) = (   0.0208333   0.3728720   0.0000000), wk =   0.0034722
        k(   41) = (   0.0208333   0.3969283   0.0000000), wk =   0.0034722
        k(   42) = (   0.0208333   0.4209846   0.0000000), wk =   0.0034722
        k(   43) = (   0.0208333   0.4450408   0.0000000), wk =   0.0034722
        k(   44) = (   0.0208333   0.4690971   0.0000000), wk =   0.0034722
        k(   45) = (   0.0208333   0.4931534   0.0000000), wk =   0.0034722
        k(   46) = (   0.0208333   0.5172096   0.0000000), wk =   0.0034722
        k(   47) = (   0.0208333   0.5412659   0.0000000), wk =   0.0034722
        k(   48) = (   0.0208333   0.5653221   0.0000000), wk =   0.0034722
        k(   49) = (   0.0416667   0.0721688   0.0000000), wk =   0.0034722
        k(   50) = (   0.0416667   0.0962250   0.0000000), wk =   0.0034722
        k(   51) = (   0.0416667   0.1202813   0.0000000), wk =   0.0034722
        k(   52) = (   0.0416667   0.1443376   0.0000000), wk =   0.0034722
        k(   53) = (   0.0416667   0.1683938   0.0000000), wk =   0.0034722
        k(   54) = (   0.0416667   0.1924501   0.0000000), wk =   0.0034722
        k(   55) = (   0.0416667   0.2165064   0.0000000), wk =   0.0034722
        k(   56) = (   0.0416667   0.2405626   0.0000000), wk =   0.0034722
        k(   57) = (   0.0416667   0.2646189   0.0000000), wk =   0.0034722
        k(   58) = (   0.0416667   0.2886751   0.0000000), wk =   0.0034722
        k(   59) = (   0.0416667   0.3127314   0.0000000), wk =   0.0034722
        k(   60) = (   0.0416667   0.3367877   0.0000000), wk =   0.0034722
        k(   61) = (   0.0416667   0.3608439   0.0000000), wk =   0.0034722
        k(   62) = (   0.0416667   0.3849002   0.0000000), wk =   0.0034722
        k(   63) = (   0.0416667   0.4089564   0.0000000), wk =   0.0034722
        k(   64) = (   0.0416667   0.4330127   0.0000000), wk =   0.0034722
        k(   65) = (   0.0416667   0.4570690   0.0000000), wk =   0.0034722
        k(   66) = (   0.0416667   0.4811252   0.0000000), wk =   0.0034722
        k(   67) = (   0.0416667   0.5051815   0.0000000), wk =   0.0034722
        k(   68) = (   0.0416667   0.5292377   0.0000000), wk =   0.0034722
        k(   69) = (   0.0416667   0.5532940   0.0000000), wk =   0.0034722
        k(   70) = (   0.0416667   0.5773503   0.0000000), wk =   0.0017361
        k(   71) = (   0.0625000   0.1082532   0.0000000), wk =   0.0034722
        k(   72) = (   0.0625000   0.1323094   0.0000000), wk =   0.0034722
        k(   73) = (   0.0625000   0.1563657   0.0000000), wk =   0.0034722
        k(   74) = (   0.0625000   0.1804220   0.0000000), wk =   0.0034722
        k(   75) = (   0.0625000   0.2044782   0.0000000), wk =   0.0034722
        k(   76) = (   0.0625000   0.2285345   0.0000000), wk =   0.0034722
        k(   77) = (   0.0625000   0.2525907   0.0000000), wk =   0.0034722
        k(   78) = (   0.0625000   0.2766470   0.0000000), wk =   0.0034722
        k(   79) = (   0.0625000   0.3007033   0.0000000), wk =   0.0034722
        k(   80) = (   0.0625000   0.3247595   0.0000000), wk =   0.0034722
        k(   81) = (   0.0625000   0.3488158   0.0000000), wk =   0.0034722
        k(   82) = (   0.0625000   0.3728720   0.0000000), wk =   0.0034722
        k(   83) = (   0.0625000   0.3969283   0.0000000), wk =   0.0034722
        k(   84) = (   0.0625000   0.4209846   0.0000000), wk =   0.0034722
        k(   85) = (   0.0625000   0.4450408   0.0000000), wk =   0.0034722
        k(   86) = (   0.0625000   0.4690971   0.0000000), wk =   0.0034722
        k(   87) = (   0.0625000   0.4931534   0.0000000), wk =   0.0034722
        k(   88) = (   0.0625000   0.5172096   0.0000000), wk =   0.0034722
        k(   89) = (   0.0625000   0.5412659   0.0000000), wk =   0.0034722
        k(   90) = (   0.0625000   0.5653221   0.0000000), wk =   0.0034722
        k(   91) = (   0.0833333   0.1443376   0.0000000), wk =   0.0034722
        k(   92) = (   0.0833333   0.1683938   0.0000000), wk =   0.0034722
        k(   93) = (   0.0833333   0.1924501   0.0000000), wk =   0.0034722
        k(   94) = (   0.0833333   0.2165064   0.0000000), wk =   0.0034722
        k(   95) = (   0.0833333   0.2405626   0.0000000), wk =   0.0034722
        k(   96) = (   0.0833333   0.2646189   0.0000000), wk =   0.0034722
        k(   97) = (   0.0833333   0.2886751   0.0000000), wk =   0.0034722
        k(   98) = (   0.0833333   0.3127314   0.0000000), wk =   0.0034722
        k(   99) = (   0.0833333   0.3367877   0.0000000), wk =   0.0034722
        k(  100) = (   0.0833333   0.3608439   0.0000000), wk =   0.0034722
        k(  101) = (   0.0833333   0.3849002   0.0000000), wk =   0.0034722
        k(  102) = (   0.0833333   0.4089564   0.0000000), wk =   0.0034722
        k(  103) = (   0.0833333   0.4330127   0.0000000), wk =   0.0034722
        k(  104) = (   0.0833333   0.4570690   0.0000000), wk =   0.0034722
        k(  105) = (   0.0833333   0.4811252   0.0000000), wk =   0.0034722
        k(  106) = (   0.0833333   0.5051815   0.0000000), wk =   0.0034722
        k(  107) = (   0.0833333   0.5292377   0.0000000), wk =   0.0034722
        k(  108) = (   0.0833333   0.5532940   0.0000000), wk =   0.0034722
        k(  109) = (   0.0833333   0.5773503   0.0000000), wk =   0.0017361
        k(  110) = (   0.1041667   0.1804220   0.0000000), wk =   0.0034722
        k(  111) = (   0.1041667   0.2044782   0.0000000), wk =   0.0034722
        k(  112) = (   0.1041667   0.2285345   0.0000000), wk =   0.0034722
        k(  113) = (   0.1041667   0.2525907   0.0000000), wk =   0.0034722
        k(  114) = (   0.1041667   0.2766470   0.0000000), wk =   0.0034722
        k(  115) = (   0.1041667   0.3007033   0.0000000), wk =   0.0034722
        k(  116) = (   0.1041667   0.3247595   0.0000000), wk =   0.0034722
        k(  117) = (   0.1041667   0.3488158   0.0000000), wk =   0.0034722
        k(  118) = (   0.1041667   0.3728720   0.0000000), wk =   0.0034722
        k(  119) = (   0.1041667   0.3969283   0.0000000), wk =   0.0034722
        k(  120) = (   0.1041667   0.4209846   0.0000000), wk =   0.0034722
        k(  121) = (   0.1041667   0.4450408   0.0000000), wk =   0.0034722
        k(  122) = (   0.1041667   0.4690971   0.0000000), wk =   0.0034722
        k(  123) = (   0.1041667   0.4931534   0.0000000), wk =   0.0034722
        k(  124) = (   0.1041667   0.5172096   0.0000000), wk =   0.0034722
        k(  125) = (   0.1041667   0.5412659   0.0000000), wk =   0.0034722
        k(  126) = (   0.1041667   0.5653221   0.0000000), wk =   0.0034722
        k(  127) = (   0.1250000   0.2165064   0.0000000), wk =   0.0034722
        k(  128) = (   0.1250000   0.2405626   0.0000000), wk =   0.0034722
        k(  129) = (   0.1250000   0.2646189   0.0000000), wk =   0.0034722
        k(  130) = (   0.1250000   0.2886751   0.0000000), wk =   0.0034722
        k(  131) = (   0.1250000   0.3127314   0.0000000), wk =   0.0034722
        k(  132) = (   0.1250000   0.3367877   0.0000000), wk =   0.0034722
        k(  133) = (   0.1250000   0.3608439   0.0000000), wk =   0.0034722
        k(  134) = (   0.1250000   0.3849002   0.0000000), wk =   0.0034722
        k(  135) = (   0.1250000   0.4089564   0.0000000), wk =   0.0034722
        k(  136) = (   0.1250000   0.4330127   0.0000000), wk =   0.0034722
        k(  137) = (   0.1250000   0.4570690   0.0000000), wk =   0.0034722
        k(  138) = (   0.1250000   0.4811252   0.0000000), wk =   0.0034722
        k(  139) = (   0.1250000   0.5051815   0.0000000), wk =   0.0034722
        k(  140) = (   0.1250000   0.5292377   0.0000000), wk =   0.0034722
        k(  141) = (   0.1250000   0.5532940   0.0000000), wk =   0.0034722
        k(  142) = (   0.1250000   0.5773503   0.0000000), wk =   0.0017361
        k(  143) = (   0.1458333   0.2525907   0.0000000), wk =   0.0034722
        k(  144) = (   0.1458333   0.2766470   0.0000000), wk =   0.0034722
        k(  145) = (   0.1458333   0.3007033   0.0000000), wk =   0.0034722
        k(  146) = (   0.1458333   0.3247595   0.0000000), wk =   0.0034722
        k(  147) = (   0.1458333   0.3488158   0.0000000), wk =   0.0034722
        k(  148) = (   0.1458333   0.3728720   0.0000000), wk =   0.0034722
        k(  149) = (   0.1458333   0.3969283   0.0000000), wk =   0.0034722
        k(  150) = (   0.1458333   0.4209846   0.0000000), wk =   0.0034722
        k(  151) = (   0.1458333   0.4450408   0.0000000), wk =   0.0034722
        k(  152) = (   0.1458333   0.4690971   0.0000000), wk =   0.0034722
        k(  153) = (   0.1458333   0.4931534   0.0000000), wk =   0.0034722
        k(  154) = (   0.1458333   0.5172096   0.0000000), wk =   0.0034722
        k(  155) = (   0.1458333   0.5412659   0.0000000), wk =   0.0034722
        k(  156) = (   0.1458333   0.5653221   0.0000000), wk =   0.0034722
        k(  157) = (   0.1666667   0.2886751   0.0000000), wk =   0.0034722
        k(  158) = (   0.1666667   0.3127314   0.0000000), wk =   0.0034722
        k(  159) = (   0.1666667   0.3367877   0.0000000), wk =   0.0034722
        k(  160) = (   0.1666667   0.3608439   0.0000000), wk =   0.0034722
        k(  161) = (   0.1666667   0.3849002   0.0000000), wk =   0.0034722
        k(  162) = (   0.1666667   0.4089564   0.0000000), wk =   0.0034722
        k(  163) = (   0.1666667   0.4330127   0.0000000), wk =   0.0034722
        k(  164) = (   0.1666667   0.4570690   0.0000000), wk =   0.0034722
        k(  165) = (   0.1666667   0.4811252   0.0000000), wk =   0.0034722
        k(  166) = (   0.1666667   0.5051815   0.0000000), wk =   0.0034722
        k(  167) = (   0.1666667   0.5292377   0.0000000), wk =   0.0034722
        k(  168) = (   0.1666667   0.5532940   0.0000000), wk =   0.0034722
        k(  169) = (   0.1666667   0.5773503   0.0000000), wk =   0.0017361
        k(  170) = (   0.1875000   0.3247595   0.0000000), wk =   0.0034722
        k(  171) = (   0.1875000   0.3488158   0.0000000), wk =   0.0034722
        k(  172) = (   0.1875000   0.3728720   0.0000000), wk =   0.0034722
        k(  173) = (   0.1875000   0.3969283   0.0000000), wk =   0.0034722
        k(  174) = (   0.1875000   0.4209846   0.0000000), wk =   0.0034722
        k(  175) = (   0.1875000   0.4450408   0.0000000), wk =   0.0034722
        k(  176) = (   0.1875000   0.4690971   0.0000000), wk =   0.0034722
        k(  177) = (   0.1875000   0.4931534   0.0000000), wk =   0.0034722
        k(  178) = (   0.1875000   0.5172096   0.0000000), wk =   0.0034722
        k(  179) = (   0.1875000   0.5412659   0.0000000), wk =   0.0034722
        k(  180) = (   0.1875000   0.5653221   0.0000000), wk =   0.0034722
        k(  181) = (   0.2083333   0.3608439   0.0000000), wk =   0.0034722
        k(  182) = (   0.2083333   0.3849002   0.0000000), wk =   0.0034722
        k(  183) = (   0.2083333   0.4089564   0.0000000), wk =   0.0034722
        k(  184) = (   0.2083333   0.4330127   0.0000000), wk =   0.0034722
        k(  185) = (   0.2083333   0.4570690   0.0000000), wk =   0.0034722
        k(  186) = (   0.2083333   0.4811252   0.0000000), wk =   0.0034722
        k(  187) = (   0.2083333   0.5051815   0.0000000), wk =   0.0034722
        k(  188) = (   0.2083333   0.5292377   0.0000000), wk =   0.0034722
        k(  189) = (   0.2083333   0.5532940   0.0000000), wk =   0.0034722
        k(  190) = (   0.2083333   0.5773503   0.0000000), wk =   0.0017361
        k(  191) = (   0.2291667   0.3969283   0.0000000), wk =   0.0034722
        k(  192) = (   0.2291667   0.4209846   0.0000000), wk =   0.0034722
        k(  193) = (   0.2291667   0.4450408   0.0000000), wk =   0.0034722
        k(  194) = (   0.2291667   0.4690971   0.0000000), wk =   0.0034722
        k(  195) = (   0.2291667   0.4931534   0.0000000), wk =   0.0034722
        k(  196) = (   0.2291667   0.5172096   0.0000000), wk =   0.0034722
        k(  197) = (   0.2291667   0.5412659   0.0000000), wk =   0.0034722
        k(  198) = (   0.2291667   0.5653221   0.0000000), wk =   0.0034722
        k(  199) = (   0.2500000   0.4330127   0.0000000), wk =   0.0034722
        k(  200) = (   0.2500000   0.4570690   0.0000000), wk =   0.0034722
        k(  201) = (   0.2500000   0.4811252   0.0000000), wk =   0.0034722
        k(  202) = (   0.2500000   0.5051815   0.0000000), wk =   0.0034722
        k(  203) = (   0.2500000   0.5292377   0.0000000), wk =   0.0034722
        k(  204) = (   0.2500000   0.5532940   0.0000000), wk =   0.0034722
        k(  205) = (   0.2500000   0.5773503   0.0000000), wk =   0.0017361
        k(  206) = (   0.2708333   0.4690971   0.0000000), wk =   0.0034722
        k(  207) = (   0.2708333   0.4931534   0.0000000), wk =   0.0034722
        k(  208) = (   0.2708333   0.5172096   0.0000000), wk =   0.0034722
        k(  209) = (   0.2708333   0.5412659   0.0000000), wk =   0.0034722
        k(  210) = (   0.2708333   0.5653221   0.0000000), wk =   0.0034722
        k(  211) = (   0.2916667   0.5051815   0.0000000), wk =   0.0034722
        k(  212) = (   0.2916667   0.5292377   0.0000000), wk =   0.0034722
        k(  213) = (   0.2916667   0.5532940   0.0000000), wk =   0.0034722
        k(  214) = (   0.2916667   0.5773503   0.0000000), wk =   0.0017361
        k(  215) = (   0.3125000   0.5412659   0.0000000), wk =   0.0034722
        k(  216) = (   0.3125000   0.5653221   0.0000000), wk =   0.0034722
        k(  217) = (   0.3333333   0.5773503   0.0000000), wk =   0.0017361
        k(  218) = (  -0.0208333   0.0120281   0.0000000), wk =   0.0034722
        k(  219) = (  -0.0416667   0.0240563   0.0000000), wk =   0.0034722
        k(  220) = (  -0.0625000   0.0360844   0.0000000), wk =   0.0034722
        k(  221) = (  -0.0833333   0.0481125   0.0000000), wk =   0.0034722
        k(  222) = (  -0.1041667   0.0601407   0.0000000), wk =   0.0034722
        k(  223) = (  -0.1250000   0.0721688   0.0000000), wk =   0.0034722
        k(  224) = (  -0.1458333   0.0841969   0.0000000), wk =   0.0034722
        k(  225) = (  -0.1666667   0.0962250   0.0000000), wk =   0.0034722
        k(  226) = (  -0.1875000   0.1082532   0.0000000), wk =   0.0034722
        k(  227) = (  -0.2083333   0.1202813   0.0000000), wk =   0.0034722
        k(  228) = (  -0.2291667   0.1323094   0.0000000), wk =   0.0034722
        k(  229) = (  -0.2500000   0.1443376   0.0000000), wk =   0.0034722
        k(  230) = (  -0.2708333   0.1563657   0.0000000), wk =   0.0034722
        k(  231) = (  -0.2916667   0.1683938   0.0000000), wk =   0.0034722
        k(  232) = (  -0.3125000   0.1804220   0.0000000), wk =   0.0034722
        k(  233) = (  -0.3333333   0.1924501   0.0000000), wk =   0.0034722
        k(  234) = (  -0.3541667   0.2044782   0.0000000), wk =   0.0034722
        k(  235) = (  -0.3750000   0.2165064   0.0000000), wk =   0.0034722
        k(  236) = (  -0.3958333   0.2285345   0.0000000), wk =   0.0034722
        k(  237) = (  -0.4166667   0.2405626   0.0000000), wk =   0.0034722
        k(  238) = (  -0.4375000   0.2525907   0.0000000), wk =   0.0034722
        k(  239) = (  -0.4583333   0.2646189   0.0000000), wk =   0.0034722
        k(  240) = (  -0.4791667   0.2766470   0.0000000), wk =   0.0034722
        k(  241) = (   0.5000000  -0.2886751   0.0000000), wk =   0.0017361
        k(  242) = (   0.0416667   0.0000000   0.0000000), wk =   0.0017361
        k(  243) = (  -0.0416667   0.0481125   0.0000000), wk =   0.0034722
        k(  244) = (   0.0625000   0.0120281   0.0000000), wk =   0.0034722
        k(  245) = (  -0.0625000   0.0601407   0.0000000), wk =   0.0034722
        k(  246) = (   0.0833333   0.0240563   0.0000000), wk =   0.0034722
        k(  247) = (  -0.0833333   0.0721688   0.0000000), wk =   0.0034722
        k(  248) = (   0.1041667   0.0360844   0.0000000), wk =   0.0034722
        k(  249) = (  -0.1041667   0.0841969   0.0000000), wk =   0.0034722
        k(  250) = (   0.1250000   0.0481125   0.0000000), wk =   0.0034722
        k(  251) = (  -0.1250000   0.0962250   0.0000000), wk =   0.0034722
        k(  252) = (   0.1458333   0.0601407   0.0000000), wk =   0.0034722
        k(  253) = (  -0.1458333   0.1082532   0.0000000), wk =   0.0034722
        k(  254) = (   0.1666667   0.0721688   0.0000000), wk =   0.0034722
        k(  255) = (  -0.1666667   0.1202813   0.0000000), wk =   0.0034722
        k(  256) = (   0.1875000   0.0841969   0.0000000), wk =   0.0034722
        k(  257) = (  -0.1875000   0.1323094   0.0000000), wk =   0.0034722
        k(  258) = (   0.2083333   0.0962250   0.0000000), wk =   0.0034722
        k(  259) = (  -0.2083333   0.1443376   0.0000000), wk =   0.0034722
        k(  260) = (   0.2291667   0.1082532   0.0000000), wk =   0.0034722
        k(  261) = (  -0.2291667   0.1563657   0.0000000), wk =   0.0034722
        k(  262) = (   0.2500000   0.1202813   0.0000000), wk =   0.0034722
        k(  263) = (  -0.2500000   0.1683938   0.0000000), wk =   0.0034722
        k(  264) = (   0.2708333   0.1323094   0.0000000), wk =   0.0034722
        k(  265) = (  -0.2708333   0.1804220   0.0000000), wk =   0.0034722
        k(  266) = (   0.2916667   0.1443376   0.0000000), wk =   0.0034722
        k(  267) = (  -0.2916667   0.1924501   0.0000000), wk =   0.0034722
        k(  268) = (   0.3125000   0.1563657   0.0000000), wk =   0.0034722
        k(  269) = (  -0.3125000   0.2044782   0.0000000), wk =   0.0034722
        k(  270) = (   0.3333333   0.1683938   0.0000000), wk =   0.0034722
        k(  271) = (  -0.3333333   0.2165064   0.0000000), wk =   0.0034722
        k(  272) = (   0.3541667   0.1804220   0.0000000), wk =   0.0034722
        k(  273) = (  -0.3541667   0.2285345   0.0000000), wk =   0.0034722
        k(  274) = (   0.3750000   0.1924501   0.0000000), wk =   0.0034722
        k(  275) = (  -0.3750000   0.2405626   0.0000000), wk =   0.0034722
        k(  276) = (   0.3958333   0.2044782   0.0000000), wk =   0.0034722
        k(  277) = (  -0.3958333   0.2525907   0.0000000), wk =   0.0034722
        k(  278) = (   0.4166667   0.2165064   0.0000000), wk =   0.0034722
        k(  279) = (  -0.4166667   0.2646189   0.0000000), wk =   0.0034722
        k(  280) = (   0.4375000   0.2285345   0.0000000), wk =   0.0034722
        k(  281) = (  -0.4375000   0.2766470   0.0000000), wk =   0.0034722
        k(  282) = (   0.4583333   0.2405626   0.0000000), wk =   0.0034722
        k(  283) = (  -0.4583333   0.2886751   0.0000000), wk =   0.0034722
        k(  284) = (   0.4791667   0.2525907   0.0000000), wk =   0.0034722
        k(  285) = (  -0.4791667   0.3007033   0.0000000), wk =   0.0034722
        k(  286) = (   0.5000000   0.2646189   0.0000000), wk =   0.0034722
        k(  287) = (   0.0833333   0.0000000   0.0000000), wk =   0.0017361
        k(  288) = (  -0.0625000   0.0841969   0.0000000), wk =   0.0034722
        k(  289) = (   0.1041667   0.0120281   0.0000000), wk =   0.0034722
        k(  290) = (  -0.0833333   0.0962250   0.0000000), wk =   0.0034722
        k(  291) = (   0.1250000   0.0240563   0.0000000), wk =   0.0034722
        k(  292) = (  -0.1041667   0.1082532   0.0000000), wk =   0.0034722
        k(  293) = (   0.1458333   0.0360844   0.0000000), wk =   0.0034722
        k(  294) = (  -0.1250000   0.1202813   0.0000000), wk =   0.0034722
        k(  295) = (   0.1666667   0.0481125   0.0000000), wk =   0.0034722
        k(  296) = (  -0.1458333   0.1323094   0.0000000), wk =   0.0034722
        k(  297) = (   0.1875000   0.0601407   0.0000000), wk =   0.0034722
        k(  298) = (  -0.1666667   0.1443376   0.0000000), wk =   0.0034722
        k(  299) = (   0.2083333   0.0721688   0.0000000), wk =   0.0034722
        k(  300) = (  -0.1875000   0.1563657   0.0000000), wk =   0.0034722
        k(  301) = (   0.2291667   0.0841969   0.0000000), wk =   0.0034722
        k(  302) = (  -0.2083333   0.1683938   0.0000000), wk =   0.0034722
        k(  303) = (   0.2500000   0.0962250   0.0000000), wk =   0.0034722
        k(  304) = (  -0.2291667   0.1804220   0.0000000), wk =   0.0034722
        k(  305) = (   0.2708333   0.1082532   0.0000000), wk =   0.0034722
        k(  306) = (  -0.2500000   0.1924501   0.0000000), wk =   0.0034722
        k(  307) = (   0.2916667   0.1202813   0.0000000), wk =   0.0034722
        k(  308) = (  -0.2708333   0.2044782   0.0000000), wk =   0.0034722
        k(  309) = (   0.3125000   0.1323094   0.0000000), wk =   0.0034722
        k(  310) = (  -0.2916667   0.2165064   0.0000000), wk =   0.0034722
        k(  311) = (   0.3333333   0.1443376   0.0000000), wk =   0.0034722
        k(  312) = (  -0.3125000   0.2285345   0.0000000), wk =   0.0034722
        k(  313) = (   0.3541667   0.1563657   0.0000000), wk =   0.0034722
        k(  314) = (  -0.3333333   0.2405626   0.0000000), wk =   0.0034722
        k(  315) = (   0.3750000   0.1683938   0.0000000), wk =   0.0034722
        k(  316) = (  -0.3541667   0.2525907   0.0000000), wk =   0.0034722
        k(  317) = (   0.3958333   0.1804220   0.0000000), wk =   0.0034722
        k(  318) = (  -0.3750000   0.2646189   0.0000000), wk =   0.0034722
        k(  319) = (   0.4166667   0.1924501   0.0000000), wk =   0.0034722
        k(  320) = (  -0.3958333   0.2766470   0.0000000), wk =   0.0034722
        k(  321) = (   0.4375000   0.2044782   0.0000000), wk =   0.0034722
        k(  322) = (  -0.4166667   0.2886751   0.0000000), wk =   0.0034722
        k(  323) = (   0.4583333   0.2165064   0.0000000), wk =   0.0034722
        k(  324) = (  -0.4375000   0.3007033   0.0000000), wk =   0.0034722
        k(  325) = (   0.4791667   0.2285345   0.0000000), wk =   0.0034722
        k(  326) = (  -0.4583333   0.3127314   0.0000000), wk =   0.0034722
        k(  327) = (   0.5000000   0.2405626   0.0000000), wk =   0.0034722
        k(  328) = (  -0.4791667   0.3247595   0.0000000), wk =   0.0034722
        k(  329) = (   0.1250000   0.0000000   0.0000000), wk =   0.0017361
        k(  330) = (  -0.0833333   0.1202813   0.0000000), wk =   0.0034722
        k(  331) = (   0.1458333   0.0120281   0.0000000), wk =   0.0034722
        k(  332) = (  -0.1041667   0.1323094   0.0000000), wk =   0.0034722
        k(  333) = (   0.1666667   0.0240563   0.0000000), wk =   0.0034722
        k(  334) = (  -0.1250000   0.1443376   0.0000000), wk =   0.0034722
        k(  335) = (   0.1875000   0.0360844   0.0000000), wk =   0.0034722
        k(  336) = (  -0.1458333   0.1563657   0.0000000), wk =   0.0034722
        k(  337) = (   0.2083333   0.0481125   0.0000000), wk =   0.0034722
        k(  338) = (  -0.1666667   0.1683938   0.0000000), wk =   0.0034722
        k(  339) = (   0.2291667   0.0601407   0.0000000), wk =   0.0034722
        k(  340) = (  -0.1875000   0.1804220   0.0000000), wk =   0.0034722
        k(  341) = (   0.2500000   0.0721688   0.0000000), wk =   0.0034722
        k(  342) = (  -0.2083333   0.1924501   0.0000000), wk =   0.0034722
        k(  343) = (   0.2708333   0.0841969   0.0000000), wk =   0.0034722
        k(  344) = (  -0.2291667   0.2044782   0.0000000), wk =   0.0034722
        k(  345) = (   0.2916667   0.0962250   0.0000000), wk =   0.0034722
        k(  346) = (  -0.2500000   0.2165064   0.0000000), wk =   0.0034722
        k(  347) = (   0.3125000   0.1082532   0.0000000), wk =   0.0034722
        k(  348) = (  -0.2708333   0.2285345   0.0000000), wk =   0.0034722
        k(  349) = (   0.3333333   0.1202813   0.0000000), wk =   0.0034722
        k(  350) = (  -0.2916667   0.2405626   0.0000000), wk =   0.0034722
        k(  351) = (   0.3541667   0.1323094   0.0000000), wk =   0.0034722
        k(  352) = (  -0.3125000   0.2525907   0.0000000), wk =   0.0034722
        k(  353) = (   0.3750000   0.1443376   0.0000000), wk =   0.0034722
        k(  354) = (  -0.3333333   0.2646189   0.0000000), wk =   0.0034722
        k(  355) = (   0.3958333   0.1563657   0.0000000), wk =   0.0034722
        k(  356) = (  -0.3541667   0.2766470   0.0000000), wk =   0.0034722
        k(  357) = (   0.4166667   0.1683938   0.0000000), wk =   0.0034722
        k(  358) = (  -0.3750000   0.2886751   0.0000000), wk =   0.0034722
        k(  359) = (   0.4375000   0.1804220   0.0000000), wk =   0.0034722
        k(  360) = (  -0.3958333   0.3007033   0.0000000), wk =   0.0034722
        k(  361) = (   0.4583333   0.1924501   0.0000000), wk =   0.0034722
        k(  362) = (  -0.4166667   0.3127314   0.0000000), wk =   0.0034722
        k(  363) = (   0.4791667   0.2044782   0.0000000), wk =   0.0034722
        k(  364) = (  -0.4375000   0.3247595   0.0000000), wk =   0.0034722
        k(  365) = (   0.5000000   0.2165064   0.0000000), wk =   0.0034722
        k(  366) = (  -0.4583333   0.3367877   0.0000000), wk =   0.0034722
        k(  367) = (   0.5208333   0.2285345   0.0000000), wk =   0.0034722
        k(  368) = (   0.1666667   0.0000000   0.0000000), wk =   0.0017361
        k(  369) = (  -0.1041667   0.1563657   0.0000000), wk =   0.0034722
        k(  370) = (   0.1875000   0.0120281   0.0000000), wk =   0.0034722
        k(  371) = (  -0.1250000   0.1683938   0.0000000), wk =   0.0034722
        k(  372) = (   0.2083333   0.0240563   0.0000000), wk =   0.0034722
        k(  373) = (  -0.1458333   0.1804220   0.0000000), wk =   0.0034722
        k(  374) = (   0.2291667   0.0360844   0.0000000), wk =   0.0034722
        k(  375) = (  -0.1666667   0.1924501   0.0000000), wk =   0.0034722
        k(  376) = (   0.2500000   0.0481125   0.0000000), wk =   0.0034722
        k(  377) = (  -0.1875000   0.2044782   0.0000000), wk =   0.0034722
        k(  378) = (   0.2708333   0.0601407   0.0000000), wk =   0.0034722
        k(  379) = (  -0.2083333   0.2165064   0.0000000), wk =   0.0034722
        k(  380) = (   0.2916667   0.0721688   0.0000000), wk =   0.0034722
        k(  381) = (  -0.2291667   0.2285345   0.0000000), wk =   0.0034722
        k(  382) = (   0.3125000   0.0841969   0.0000000), wk =   0.0034722
        k(  383) = (  -0.2500000   0.2405626   0.0000000), wk =   0.0034722
        k(  384) = (   0.3333333   0.0962250   0.0000000), wk =   0.0034722
        k(  385) = (  -0.2708333   0.2525907   0.0000000), wk =   0.0034722
        k(  386) = (   0.3541667   0.1082532   0.0000000), wk =   0.0034722
        k(  387) = (  -0.2916667   0.2646189   0.0000000), wk =   0.0034722
        k(  388) = (   0.3750000   0.1202813   0.0000000), wk =   0.0034722
        k(  389) = (  -0.3125000   0.2766470   0.0000000), wk =   0.0034722
        k(  390) = (   0.3958333   0.1323094   0.0000000), wk =   0.0034722
        k(  391) = (  -0.3333333   0.2886751   0.0000000), wk =   0.0034722
        k(  392) = (   0.4166667   0.1443376   0.0000000), wk =   0.0034722
        k(  393) = (  -0.3541667   0.3007033   0.0000000), wk =   0.0034722
        k(  394) = (   0.4375000   0.1563657   0.0000000), wk =   0.0034722
        k(  395) = (  -0.3750000   0.3127314   0.0000000), wk =   0.0034722
        k(  396) = (   0.4583333   0.1683938   0.0000000), wk =   0.0034722
        k(  397) = (  -0.3958333   0.3247595   0.0000000), wk =   0.0034722
        k(  398) = (   0.4791667   0.1804220   0.0000000), wk =   0.0034722
        k(  399) = (  -0.4166667   0.3367877   0.0000000), wk =   0.0034722
        k(  400) = (   0.5000000   0.1924501   0.0000000), wk =   0.0034722
        k(  401) = (  -0.4375000   0.3488158   0.0000000), wk =   0.0034722
        k(  402) = (   0.5208333   0.2044782   0.0000000), wk =   0.0034722
        k(  403) = (  -0.4583333   0.3608439   0.0000000), wk =   0.0034722
        k(  404) = (   0.2083333   0.0000000   0.0000000), wk =   0.0017361
        k(  405) = (  -0.1250000   0.1924501   0.0000000), wk =   0.0034722
        k(  406) = (   0.2291667   0.0120281   0.0000000), wk =   0.0034722
        k(  407) = (  -0.1458333   0.2044782   0.0000000), wk =   0.0034722
        k(  408) = (   0.2500000   0.0240563   0.0000000), wk =   0.0034722
        k(  409) = (  -0.1666667   0.2165064   0.0000000), wk =   0.0034722
        k(  410) = (   0.2708333   0.0360844   0.0000000), wk =   0.0034722
        k(  411) = (  -0.1875000   0.2285345   0.0000000), wk =   0.0034722
        k(  412) = (   0.2916667   0.0481125   0.0000000), wk =   0.0034722
        k(  413) = (  -0.2083333   0.2405626   0.0000000), wk =   0.0034722
        k(  414) = (   0.3125000   0.0601407   0.0000000), wk =   0.0034722
        k(  415) = (  -0.2291667   0.2525907   0.0000000), wk =   0.0034722
        k(  416) = (   0.3333333   0.0721688   0.0000000), wk =   0.0034722
        k(  417) = (  -0.2500000   0.2646189   0.0000000), wk =   0.0034722
        k(  418) = (   0.3541667   0.0841969   0.0000000), wk =   0.0034722
        k(  419) = (  -0.2708333   0.2766470   0.0000000), wk =   0.0034722
        k(  420) = (   0.3750000   0.0962250   0.0000000), wk =   0.0034722
        k(  421) = (  -0.2916667   0.2886751   0.0000000), wk =   0.0034722
        k(  422) = (   0.3958333   0.1082532   0.0000000), wk =   0.0034722
        k(  423) = (  -0.3125000   0.3007033   0.0000000), wk =   0.0034722
        k(  424) = (   0.4166667   0.1202813   0.0000000), wk =   0.0034722
        k(  425) = (  -0.3333333   0.3127314   0.0000000), wk =   0.0034722
        k(  426) = (   0.4375000   0.1323094   0.0000000), wk =   0.0034722
        k(  427) = (  -0.3541667   0.3247595   0.0000000), wk =   0.0034722
        k(  428) = (   0.4583333   0.1443376   0.0000000), wk =   0.0034722
        k(  429) = (  -0.3750000   0.3367877   0.0000000), wk =   0.0034722
        k(  430) = (   0.4791667   0.1563657   0.0000000), wk =   0.0034722
        k(  431) = (  -0.3958333   0.3488158   0.0000000), wk =   0.0034722
        k(  432) = (   0.5000000   0.1683938   0.0000000), wk =   0.0034722
        k(  433) = (  -0.4166667   0.3608439   0.0000000), wk =   0.0034722
        k(  434) = (   0.5208333   0.1804220   0.0000000), wk =   0.0034722
        k(  435) = (  -0.4375000   0.3728720   0.0000000), wk =   0.0034722
        k(  436) = (   0.5416667   0.1924501   0.0000000), wk =   0.0034722
        k(  437) = (   0.2500000   0.0000000   0.0000000), wk =   0.0017361
        k(  438) = (  -0.1458333   0.2285345   0.0000000), wk =   0.0034722
        k(  439) = (   0.2708333   0.0120281   0.0000000), wk =   0.0034722
        k(  440) = (  -0.1666667   0.2405626   0.0000000), wk =   0.0034722
        k(  441) = (   0.2916667   0.0240563   0.0000000), wk =   0.0034722
        k(  442) = (  -0.1875000   0.2525907   0.0000000), wk =   0.0034722
        k(  443) = (   0.3125000   0.0360844   0.0000000), wk =   0.0034722
        k(  444) = (  -0.2083333   0.2646189   0.0000000), wk =   0.0034722
        k(  445) = (   0.3333333   0.0481125   0.0000000), wk =   0.0034722
        k(  446) = (  -0.2291667   0.2766470   0.0000000), wk =   0.0034722
        k(  447) = (   0.3541667   0.0601407   0.0000000), wk =   0.0034722
        k(  448) = (  -0.2500000   0.2886751   0.0000000), wk =   0.0034722
        k(  449) = (   0.3750000   0.0721688   0.0000000), wk =   0.0034722
        k(  450) = (  -0.2708333   0.3007033   0.0000000), wk =   0.0034722
        k(  451) = (   0.3958333   0.0841969   0.0000000), wk =   0.0034722
        k(  452) = (  -0.2916667   0.3127314   0.0000000), wk =   0.0034722
        k(  453) = (   0.4166667   0.0962250   0.0000000), wk =   0.0034722
        k(  454) = (  -0.3125000   0.3247595   0.0000000), wk =   0.0034722
        k(  455) = (   0.4375000   0.1082532   0.0000000), wk =   0.0034722
        k(  456) = (  -0.3333333   0.3367877   0.0000000), wk =   0.0034722
        k(  457) = (   0.4583333   0.1202813   0.0000000), wk =   0.0034722
        k(  458) = (  -0.3541667   0.3488158   0.0000000), wk =   0.0034722
        k(  459) = (   0.4791667   0.1323094   0.0000000), wk =   0.0034722
        k(  460) = (  -0.3750000   0.3608439   0.0000000), wk =   0.0034722
        k(  461) = (   0.5000000   0.1443376   0.0000000), wk =   0.0034722
        k(  462) = (  -0.3958333   0.3728720   0.0000000), wk =   0.0034722
        k(  463) = (   0.5208333   0.1563657   0.0000000), wk =   0.0034722
        k(  464) = (  -0.4166667   0.3849002   0.0000000), wk =   0.0034722
        k(  465) = (   0.5416667   0.1683938   0.0000000), wk =   0.0034722
        k(  466) = (  -0.4375000   0.3969283   0.0000000), wk =   0.0034722
        k(  467) = (   0.2916667   0.0000000   0.0000000), wk =   0.0017361
        k(  468) = (  -0.1666667   0.2646189   0.0000000), wk =   0.0034722
        k(  469) = (   0.3125000   0.0120281   0.0000000), wk =   0.0034722
        k(  470) = (  -0.1875000   0.2766470   0.0000000), wk =   0.0034722
        k(  471) = (   0.3333333   0.0240563   0.0000000), wk =   0.0034722
        k(  472) = (  -0.2083333   0.2886751   0.0000000), wk =   0.0034722
        k(  473) = (   0.3541667   0.0360844   0.0000000), wk =   0.0034722
        k(  474) = (  -0.2291667   0.3007033   0.0000000), wk =   0.0034722
        k(  475) = (   0.3750000   0.0481125   0.0000000), wk =   0.0034722
        k(  476) = (  -0.2500000   0.3127314   0.0000000), wk =   0.0034722
        k(  477) = (   0.3958333   0.0601407   0.0000000), wk =   0.0034722
        k(  478) = (  -0.2708333   0.3247595   0.0000000), wk =   0.0034722
        k(  479) = (   0.4166667   0.0721688   0.0000000), wk =   0.0034722
        k(  480) = (  -0.2916667   0.3367877   0.0000000), wk =   0.0034722
        k(  481) = (   0.4375000   0.0841969   0.0000000), wk =   0.0034722
        k(  482) = (  -0.3125000   0.3488158   0.0000000), wk =   0.0034722
        k(  483) = (   0.4583333   0.0962250   0.0000000), wk =   0.0034722
        k(  484) = (  -0.3333333   0.3608439   0.0000000), wk =   0.0034722
        k(  485) = (   0.4791667   0.1082532   0.0000000), wk =   0.0034722
        k(  486) = (  -0.3541667   0.3728720   0.0000000), wk =   0.0034722
        k(  487) = (   0.5000000   0.1202813   0.0000000), wk =   0.0034722
        k(  488) = (  -0.3750000   0.3849002   0.0000000), wk =   0.0034722
        k(  489) = (   0.5208333   0.1323094   0.0000000), wk =   0.0034722
        k(  490) = (  -0.3958333   0.3969283   0.0000000), wk =   0.0034722
        k(  491) = (   0.5416667   0.1443376   0.0000000), wk =   0.0034722
        k(  492) = (  -0.4166667   0.4089564   0.0000000), wk =   0.0034722
        k(  493) = (   0.5625000   0.1563657   0.0000000), wk =   0.0034722
        k(  494) = (   0.3333333   0.0000000   0.0000000), wk =   0.0017361
        k(  495) = (  -0.1875000   0.3007033   0.0000000), wk =   0.0034722
        k(  496) = (   0.3541667   0.0120281   0.0000000), wk =   0.0034722
        k(  497) = (  -0.2083333   0.3127314   0.0000000), wk =   0.0034722
        k(  498) = (   0.3750000   0.0240563   0.0000000), wk =   0.0034722
        k(  499) = (  -0.2291667   0.3247595   0.0000000), wk =   0.0034722
        k(  500) = (   0.3958333   0.0360844   0.0000000), wk =   0.0034722
        k(  501) = (  -0.2500000   0.3367877   0.0000000), wk =   0.0034722
        k(  502) = (   0.4166667   0.0481125   0.0000000), wk =   0.0034722
        k(  503) = (  -0.2708333   0.3488158   0.0000000), wk =   0.0034722
        k(  504) = (   0.4375000   0.0601407   0.0000000), wk =   0.0034722
        k(  505) = (  -0.2916667   0.3608439   0.0000000), wk =   0.0034722
        k(  506) = (   0.4583333   0.0721688   0.0000000), wk =   0.0034722
        k(  507) = (  -0.3125000   0.3728720   0.0000000), wk =   0.0034722
        k(  508) = (   0.4791667   0.0841969   0.0000000), wk =   0.0034722
        k(  509) = (  -0.3333333   0.3849002   0.0000000), wk =   0.0034722
        k(  510) = (   0.5000000   0.0962250   0.0000000), wk =   0.0034722
        k(  511) = (  -0.3541667   0.3969283   0.0000000), wk =   0.0034722
        k(  512) = (   0.5208333   0.1082532   0.0000000), wk =   0.0034722
        k(  513) = (  -0.3750000   0.4089564   0.0000000), wk =   0.0034722
        k(  514) = (   0.5416667   0.1202813   0.0000000), wk =   0.0034722
        k(  515) = (  -0.3958333   0.4209846   0.0000000), wk =   0.0034722
        k(  516) = (   0.5625000   0.1323094   0.0000000), wk =   0.0034722
        k(  517) = (  -0.4166667   0.4330127   0.0000000), wk =   0.0034722
        k(  518) = (   0.3750000   0.0000000   0.0000000), wk =   0.0017361
        k(  519) = (  -0.2083333   0.3367877   0.0000000), wk =   0.0034722
        k(  520) = (   0.3958333   0.0120281   0.0000000), wk =   0.0034722
        k(  521) = (  -0.2291667   0.3488158   0.0000000), wk =   0.0034722
        k(  522) = (   0.4166667   0.0240563   0.0000000), wk =   0.0034722
        k(  523) = (  -0.2500000   0.3608439   0.0000000), wk =   0.0034722
        k(  524) = (   0.4375000   0.0360844   0.0000000), wk =   0.0034722
        k(  525) = (  -0.2708333   0.3728720   0.0000000), wk =   0.0034722
        k(  526) = (   0.4583333   0.0481125   0.0000000), wk =   0.0034722
        k(  527) = (  -0.2916667   0.3849002   0.0000000), wk =   0.0034722
        k(  528) = (   0.4791667   0.0601407   0.0000000), wk =   0.0034722
        k(  529) = (  -0.3125000   0.3969283   0.0000000), wk =   0.0034722
        k(  530) = (   0.5000000   0.0721688   0.0000000), wk =   0.0034722
        k(  531) = (  -0.3333333   0.4089564   0.0000000), wk =   0.0034722
        k(  532) = (   0.5208333   0.0841969   0.0000000), wk =   0.0034722
        k(  533) = (  -0.3541667   0.4209846   0.0000000), wk =   0.0034722
        k(  534) = (   0.5416667   0.0962250   0.0000000), wk =   0.0034722
        k(  535) = (  -0.3750000   0.4330127   0.0000000), wk =   0.0034722
        k(  536) = (   0.5625000   0.1082532   0.0000000), wk =   0.0034722
        k(  537) = (  -0.3958333   0.4450408   0.0000000), wk =   0.0034722
        k(  538) = (   0.5833333   0.1202813   0.0000000), wk =   0.0034722
        k(  539) = (   0.4166667   0.0000000   0.0000000), wk =   0.0017361
        k(  540) = (  -0.2291667   0.3728720   0.0000000), wk =   0.0034722
        k(  541) = (   0.4375000   0.0120281   0.0000000), wk =   0.0034722
        k(  542) = (  -0.2500000   0.3849002   0.0000000), wk =   0.0034722
        k(  543) = (   0.4583333   0.0240563   0.0000000), wk =   0.0034722
        k(  544) = (  -0.2708333   0.3969283   0.0000000), wk =   0.0034722
        k(  545) = (   0.4791667   0.0360844   0.0000000), wk =   0.0034722
        k(  546) = (  -0.2916667   0.4089564   0.0000000), wk =   0.0034722
        k(  547) = (   0.5000000   0.0481125   0.0000000), wk =   0.0034722
        k(  548) = (  -0.3125000   0.4209846   0.0000000), wk =   0.0034722
        k(  549) = (   0.5208333   0.0601407   0.0000000), wk =   0.0034722
        k(  550) = (  -0.3333333   0.4330127   0.0000000), wk =   0.0034722
        k(  551) = (   0.5416667   0.0721688   0.0000000), wk =   0.0034722
        k(  552) = (  -0.3541667   0.4450408   0.0000000), wk =   0.0034722
        k(  553) = (   0.5625000   0.0841969   0.0000000), wk =   0.0034722
        k(  554) = (  -0.3750000   0.4570690   0.0000000), wk =   0.0034722
        k(  555) = (   0.5833333   0.0962250   0.0000000), wk =   0.0034722
        k(  556) = (  -0.3958333   0.4690971   0.0000000), wk =   0.0034722
        k(  557) = (   0.4583333   0.0000000   0.0000000), wk =   0.0017361
        k(  558) = (  -0.2500000   0.4089564   0.0000000), wk =   0.0034722
        k(  559) = (   0.4791667   0.0120281   0.0000000), wk =   0.0034722
        k(  560) = (  -0.2708333   0.4209846   0.0000000), wk =   0.0034722
        k(  561) = (   0.5000000   0.0240563   0.0000000), wk =   0.0034722
        k(  562) = (  -0.2916667   0.4330127   0.0000000), wk =   0.0034722
        k(  563) = (   0.5208333   0.0360844   0.0000000), wk =   0.0034722
        k(  564) = (  -0.3125000   0.4450408   0.0000000), wk =   0.0034722
        k(  565) = (   0.5416667   0.0481125   0.0000000), wk =   0.0034722
        k(  566) = (  -0.3333333   0.4570690   0.0000000), wk =   0.0034722
        k(  567) = (   0.5625000   0.0601407   0.0000000), wk =   0.0034722
        k(  568) = (  -0.3541667   0.4690971   0.0000000), wk =   0.0034722
        k(  569) = (   0.5833333   0.0721688   0.0000000), wk =   0.0034722
        k(  570) = (  -0.3750000   0.4811252   0.0000000), wk =   0.0034722
        k(  571) = (   0.6041667   0.0841969   0.0000000), wk =   0.0034722
        k(  572) = (   0.5000000   0.0000000   0.0000000), wk =   0.0017361
        k(  573) = (  -0.2708333   0.4450408   0.0000000), wk =   0.0034722
        k(  574) = (   0.5208333   0.0120281   0.0000000), wk =   0.0034722
        k(  575) = (  -0.2916667   0.4570690   0.0000000), wk =   0.0034722
        k(  576) = (   0.5416667   0.0240563   0.0000000), wk =   0.0034722
        k(  577) = (  -0.3125000   0.4690971   0.0000000), wk =   0.0034722
        k(  578) = (   0.5625000   0.0360844   0.0000000), wk =   0.0034722
        k(  579) = (  -0.3333333   0.4811252   0.0000000), wk =   0.0034722
        k(  580) = (   0.5833333   0.0481125   0.0000000), wk =   0.0034722
        k(  581) = (  -0.3541667   0.4931534   0.0000000), wk =   0.0034722
        k(  582) = (   0.6041667   0.0601407   0.0000000), wk =   0.0034722
        k(  583) = (  -0.3750000   0.5051815   0.0000000), wk =   0.0034722
        k(  584) = (   0.5416667  -0.0000000   0.0000000), wk =   0.0017361
        k(  585) = (  -0.2916667   0.4811252   0.0000000), wk =   0.0034722
        k(  586) = (   0.5625000   0.0120281   0.0000000), wk =   0.0034722
        k(  587) = (  -0.3125000   0.4931534   0.0000000), wk =   0.0034722
        k(  588) = (   0.5833333   0.0240563   0.0000000), wk =   0.0034722
        k(  589) = (  -0.3333333   0.5051815   0.0000000), wk =   0.0034722
        k(  590) = (   0.6041667   0.0360844   0.0000000), wk =   0.0034722
        k(  591) = (  -0.3541667   0.5172096   0.0000000), wk =   0.0034722
        k(  592) = (   0.6250000   0.0481125   0.0000000), wk =   0.0034722
        k(  593) = (   0.5833333   0.0000000   0.0000000), wk =   0.0017361
        k(  594) = (  -0.3125000   0.5172096   0.0000000), wk =   0.0034722
        k(  595) = (   0.6041667   0.0120281   0.0000000), wk =   0.0034722
        k(  596) = (  -0.3333333   0.5292377   0.0000000), wk =   0.0034722
        k(  597) = (   0.6250000   0.0240563   0.0000000), wk =   0.0034722
        k(  598) = (  -0.3541667   0.5412659   0.0000000), wk =   0.0034722
        k(  599) = (   0.6250000   0.0000000   0.0000000), wk =   0.0017361
        k(  600) = (  -0.3333333   0.5532940   0.0000000), wk =   0.0034722
        k(  601) = (   0.6458333   0.0120281   0.0000000), wk =   0.0034722

                       cryst. coord.
        k(    1) = (   0.0000000   0.0000000   0.0000000), wk =   0.0008681
        k(    2) = (   0.0000000   0.0208333   0.0000000), wk =   0.0017361
        k(    3) = (   0.0000000   0.0416667   0.0000000), wk =   0.0017361
        k(    4) = (   0.0000000   0.0625000   0.0000000), wk =   0.0017361
        k(    5) = (   0.0000000   0.0833333   0.0000000), wk =   0.0017361
        k(    6) = (   0.0000000   0.1041667   0.0000000), wk =   0.0017361
        k(    7) = (   0.0000000   0.1250000   0.0000000), wk =   0.0017361
        k(    8) = (   0.0000000   0.1458333   0.0000000), wk =   0.0017361
        k(    9) = (   0.0000000   0.1666667   0.0000000), wk =   0.0017361
        k(   10) = (   0.0000000   0.1875000   0.0000000), wk =   0.0017361
        k(   11) = (   0.0000000   0.2083333   0.0000000), wk =   0.0017361
        k(   12) = (   0.0000000   0.2291667   0.0000000), wk =   0.0017361
        k(   13) = (   0.0000000   0.2500000   0.0000000), wk =   0.0017361
        k(   14) = (   0.0000000   0.2708333   0.0000000), wk =   0.0017361
        k(   15) = (   0.0000000   0.2916667   0.0000000), wk =   0.0017361
        k(   16) = (   0.0000000   0.3125000   0.0000000), wk =   0.0017361
        k(   17) = (   0.0000000   0.3333333   0.0000000), wk =   0.0017361
        k(   18) = (   0.0000000   0.3541667   0.0000000), wk =   0.0017361
        k(   19) = (   0.0000000   0.3750000   0.0000000), wk =   0.0017361
        k(   20) = (   0.0000000   0.3958333   0.0000000), wk =   0.0017361
        k(   21) = (   0.0000000   0.4166667   0.0000000), wk =   0.0017361
        k(   22) = (   0.0000000   0.4375000   0.0000000), wk =   0.0017361
        k(   23) = (   0.0000000   0.4583333   0.0000000), wk =   0.0017361
        k(   24) = (   0.0000000   0.4791667   0.0000000), wk =   0.0017361
        k(   25) = (   0.0000000  -0.5000000   0.0000000), wk =   0.0008681
        k(   26) = (   0.0208333   0.0208333   0.0000000), wk =   0.0034722
        k(   27) = (   0.0208333   0.0416667   0.0000000), wk =   0.0034722
        k(   28) = (   0.0208333   0.0625000   0.0000000), wk =   0.0034722
        k(   29) = (   0.0208333   0.0833333   0.0000000), wk =   0.0034722
        k(   30) = (   0.0208333   0.1041667   0.0000000), wk =   0.0034722
        k(   31) = (   0.0208333   0.1250000   0.0000000), wk =   0.0034722
        k(   32) = (   0.0208333   0.1458333   0.0000000), wk =   0.0034722
        k(   33) = (   0.0208333   0.1666667   0.0000000), wk =   0.0034722
        k(   34) = (   0.0208333   0.1875000   0.0000000), wk =   0.0034722
        k(   35) = (   0.0208333   0.2083333   0.0000000), wk =   0.0034722
        k(   36) = (   0.0208333   0.2291667   0.0000000), wk =   0.0034722
        k(   37) = (   0.0208333   0.2500000   0.0000000), wk =   0.0034722
        k(   38) = (   0.0208333   0.2708333   0.0000000), wk =   0.0034722
        k(   39) = (   0.0208333   0.2916667   0.0000000), wk =   0.0034722
        k(   40) = (   0.0208333   0.3125000   0.0000000), wk =   0.0034722
        k(   41) = (   0.0208333   0.3333333   0.0000000), wk =   0.0034722
        k(   42) = (   0.0208333   0.3541667   0.0000000), wk =   0.0034722
        k(   43) = (   0.0208333   0.3750000   0.0000000), wk =   0.0034722
        k(   44) = (   0.0208333   0.3958333   0.0000000), wk =   0.0034722
        k(   45) = (   0.0208333   0.4166667   0.0000000), wk =   0.0034722
        k(   46) = (   0.0208333   0.4375000   0.0000000), wk =   0.0034722
        k(   47) = (   0.0208333   0.4583333   0.0000000), wk =   0.0034722
        k(   48) = (   0.0208333   0.4791667   0.0000000), wk =   0.0034722
        k(   49) = (   0.0416667   0.0416667   0.0000000), wk =   0.0034722
        k(   50) = (   0.0416667   0.0625000   0.0000000), wk =   0.0034722
        k(   51) = (   0.0416667   0.0833333   0.0000000), wk =   0.0034722
        k(   52) = (   0.0416667   0.1041667   0.0000000), wk =   0.0034722
        k(   53) = (   0.0416667   0.1250000   0.0000000), wk =   0.0034722
        k(   54) = (   0.0416667   0.1458333   0.0000000), wk =   0.0034722
        k(   55) = (   0.0416667   0.1666667   0.0000000), wk =   0.0034722
        k(   56) = (   0.0416667   0.1875000   0.0000000), wk =   0.0034722
        k(   57) = (   0.0416667   0.2083333   0.0000000), wk =   0.0034722
        k(   58) = (   0.0416667   0.2291667   0.0000000), wk =   0.0034722
        k(   59) = (   0.0416667   0.2500000   0.0000000), wk =   0.0034722
        k(   60) = (   0.0416667   0.2708333   0.0000000), wk =   0.0034722
        k(   61) = (   0.0416667   0.2916667   0.0000000), wk =   0.0034722
        k(   62) = (   0.0416667   0.3125000   0.0000000), wk =   0.0034722
        k(   63) = (   0.0416667   0.3333333   0.0000000), wk =   0.0034722
        k(   64) = (   0.0416667   0.3541667   0.0000000), wk =   0.0034722
        k(   65) = (   0.0416667   0.3750000   0.0000000), wk =   0.0034722
        k(   66) = (   0.0416667   0.3958333   0.0000000), wk =   0.0034722
        k(   67) = (   0.0416667   0.4166667   0.0000000), wk =   0.0034722
        k(   68) = (   0.0416667   0.4375000   0.0000000), wk =   0.0034722
        k(   69) = (   0.0416667   0.4583333   0.0000000), wk =   0.0034722
        k(   70) = (   0.0416667   0.4791667   0.0000000), wk =   0.0017361
        k(   71) = (   0.0625000   0.0625000   0.0000000), wk =   0.0034722
        k(   72) = (   0.0625000   0.0833333   0.0000000), wk =   0.0034722
        k(   73) = (   0.0625000   0.1041667   0.0000000), wk =   0.0034722
        k(   74) = (   0.0625000   0.1250000   0.0000000), wk =   0.0034722
        k(   75) = (   0.0625000   0.1458333   0.0000000), wk =   0.0034722
        k(   76) = (   0.0625000   0.1666667   0.0000000), wk =   0.0034722
        k(   77) = (   0.0625000   0.1875000   0.0000000), wk =   0.0034722
        k(   78) = (   0.0625000   0.2083333   0.0000000), wk =   0.0034722
        k(   79) = (   0.0625000   0.2291667   0.0000000), wk =   0.0034722
        k(   80) = (   0.0625000   0.2500000   0.0000000), wk =   0.0034722
        k(   81) = (   0.0625000   0.2708333   0.0000000), wk =   0.0034722
        k(   82) = (   0.0625000   0.2916667   0.0000000), wk =   0.0034722
        k(   83) = (   0.0625000   0.3125000   0.0000000), wk =   0.0034722
        k(   84) = (   0.0625000   0.3333333   0.0000000), wk =   0.0034722
        k(   85) = (   0.0625000   0.3541667   0.0000000), wk =   0.0034722
        k(   86) = (   0.0625000   0.3750000   0.0000000), wk =   0.0034722
        k(   87) = (   0.0625000   0.3958333   0.0000000), wk =   0.0034722
        k(   88) = (   0.0625000   0.4166667   0.0000000), wk =   0.0034722
        k(   89) = (   0.0625000   0.4375000   0.0000000), wk =   0.0034722
        k(   90) = (   0.0625000   0.4583333   0.0000000), wk =   0.0034722
        k(   91) = (   0.0833333   0.0833333   0.0000000), wk =   0.0034722
        k(   92) = (   0.0833333   0.1041667   0.0000000), wk =   0.0034722
        k(   93) = (   0.0833333   0.1250000   0.0000000), wk =   0.0034722
        k(   94) = (   0.0833333   0.1458333   0.0000000), wk =   0.0034722
        k(   95) = (   0.0833333   0.1666667   0.0000000), wk =   0.0034722
        k(   96) = (   0.0833333   0.1875000   0.0000000), wk =   0.0034722
        k(   97) = (   0.0833333   0.2083333   0.0000000), wk =   0.0034722
        k(   98) = (   0.0833333   0.2291667   0.0000000), wk =   0.0034722
        k(   99) = (   0.0833333   0.2500000   0.0000000), wk =   0.0034722
        k(  100) = (   0.0833333   0.2708333   0.0000000), wk =   0.0034722
        k(  101) = (   0.0833333   0.2916667   0.0000000), wk =   0.0034722
        k(  102) = (   0.0833333   0.3125000   0.0000000), wk =   0.0034722
        k(  103) = (   0.0833333   0.3333333   0.0000000), wk =   0.0034722
        k(  104) = (   0.0833333   0.3541667   0.0000000), wk =   0.0034722
        k(  105) = (   0.0833333   0.3750000   0.0000000), wk =   0.0034722
        k(  106) = (   0.0833333   0.3958333   0.0000000), wk =   0.0034722
        k(  107) = (   0.0833333   0.4166667   0.0000000), wk =   0.0034722
        k(  108) = (   0.0833333   0.4375000   0.0000000), wk =   0.0034722
        k(  109) = (   0.0833333   0.4583333   0.0000000), wk =   0.0017361
        k(  110) = (   0.1041667   0.1041667   0.0000000), wk =   0.0034722
        k(  111) = (   0.1041667   0.1250000   0.0000000), wk =   0.0034722
        k(  112) = (   0.1041667   0.1458333   0.0000000), wk =   0.0034722
        k(  113) = (   0.1041667   0.1666667   0.0000000), wk =   0.0034722
        k(  114) = (   0.1041667   0.1875000   0.0000000), wk =   0.0034722
        k(  115) = (   0.1041667   0.2083333   0.0000000), wk =   0.0034722
        k(  116) = (   0.1041667   0.2291667   0.0000000), wk =   0.0034722
        k(  117) = (   0.1041667   0.2500000   0.0000000), wk =   0.0034722
        k(  118) = (   0.1041667   0.2708333   0.0000000), wk =   0.0034722
        k(  119) = (   0.1041667   0.2916667   0.0000000), wk =   0.0034722
        k(  120) = (   0.1041667   0.3125000   0.0000000), wk =   0.0034722
        k(  121) = (   0.1041667   0.3333333   0.0000000), wk =   0.0034722
        k(  122) = (   0.1041667   0.3541667   0.0000000), wk =   0.0034722
        k(  123) = (   0.1041667   0.3750000   0.0000000), wk =   0.0034722
        k(  124) = (   0.1041667   0.3958333   0.0000000), wk =   0.0034722
        k(  125) = (   0.1041667   0.4166667   0.0000000), wk =   0.0034722
        k(  126) = (   0.1041667   0.4375000   0.0000000), wk =   0.0034722
        k(  127) = (   0.1250000   0.1250000   0.0000000), wk =   0.0034722
        k(  128) = (   0.1250000   0.1458333   0.0000000), wk =   0.0034722
        k(  129) = (   0.1250000   0.1666667   0.0000000), wk =   0.0034722
        k(  130) = (   0.1250000   0.1875000   0.0000000), wk =   0.0034722
        k(  131) = (   0.1250000   0.2083333   0.0000000), wk =   0.0034722
        k(  132) = (   0.1250000   0.2291667   0.0000000), wk =   0.0034722
        k(  133) = (   0.1250000   0.2500000   0.0000000), wk =   0.0034722
        k(  134) = (   0.1250000   0.2708333   0.0000000), wk =   0.0034722
        k(  135) = (   0.1250000   0.2916667   0.0000000), wk =   0.0034722
        k(  136) = (   0.1250000   0.3125000   0.0000000), wk =   0.0034722
        k(  137) = (   0.1250000   0.3333333   0.0000000), wk =   0.0034722
        k(  138) = (   0.1250000   0.3541667   0.0000000), wk =   0.0034722
        k(  139) = (   0.1250000   0.3750000   0.0000000), wk =   0.0034722
        k(  140) = (   0.1250000   0.3958333   0.0000000), wk =   0.0034722
        k(  141) = (   0.1250000   0.4166667   0.0000000), wk =   0.0034722
        k(  142) = (   0.1250000   0.4375000   0.0000000), wk =   0.0017361
        k(  143) = (   0.1458333   0.1458333   0.0000000), wk =   0.0034722
        k(  144) = (   0.1458333   0.1666667   0.0000000), wk =   0.0034722
        k(  145) = (   0.1458333   0.1875000   0.0000000), wk =   0.0034722
        k(  146) = (   0.1458333   0.2083333   0.0000000), wk =   0.0034722
        k(  147) = (   0.1458333   0.2291667   0.0000000), wk =   0.0034722
        k(  148) = (   0.1458333   0.2500000   0.0000000), wk =   0.0034722
        k(  149) = (   0.1458333   0.2708333   0.0000000), wk =   0.0034722
        k(  150) = (   0.1458333   0.2916667   0.0000000), wk =   0.0034722
        k(  151) = (   0.1458333   0.3125000   0.0000000), wk =   0.0034722
        k(  152) = (   0.1458333   0.3333333   0.0000000), wk =   0.0034722
        k(  153) = (   0.1458333   0.3541667   0.0000000), wk =   0.0034722
        k(  154) = (   0.1458333   0.3750000   0.0000000), wk =   0.0034722
        k(  155) = (   0.1458333   0.3958333   0.0000000), wk =   0.0034722
        k(  156) = (   0.1458333   0.4166667   0.0000000), wk =   0.0034722
        k(  157) = (   0.1666667   0.1666667   0.0000000), wk =   0.0034722
        k(  158) = (   0.1666667   0.1875000   0.0000000), wk =   0.0034722
        k(  159) = (   0.1666667   0.2083333   0.0000000), wk =   0.0034722
        k(  160) = (   0.1666667   0.2291667   0.0000000), wk =   0.0034722
        k(  161) = (   0.1666667   0.2500000   0.0000000), wk =   0.0034722
        k(  162) = (   0.1666667   0.2708333   0.0000000), wk =   0.0034722
        k(  163) = (   0.1666667   0.2916667   0.0000000), wk =   0.0034722
        k(  164) = (   0.1666667   0.3125000   0.0000000), wk =   0.0034722
        k(  165) = (   0.1666667   0.3333333   0.0000000), wk =   0.0034722
        k(  166) = (   0.1666667   0.3541667   0.0000000), wk =   0.0034722
        k(  167) = (   0.1666667   0.3750000   0.0000000), wk =   0.0034722
        k(  168) = (   0.1666667   0.3958333   0.0000000), wk =   0.0034722
        k(  169) = (   0.1666667   0.4166667   0.0000000), wk =   0.0017361
        k(  170) = (   0.1875000   0.1875000   0.0000000), wk =   0.0034722
        k(  171) = (   0.1875000   0.2083333   0.0000000), wk =   0.0034722
        k(  172) = (   0.1875000   0.2291667   0.0000000), wk =   0.0034722
        k(  173) = (   0.1875000   0.2500000   0.0000000), wk =   0.0034722
        k(  174) = (   0.1875000   0.2708333   0.0000000), wk =   0.0034722
        k(  175) = (   0.1875000   0.2916667   0.0000000), wk =   0.0034722
        k(  176) = (   0.1875000   0.3125000   0.0000000), wk =   0.0034722
        k(  177) = (   0.1875000   0.3333333   0.0000000), wk =   0.0034722
        k(  178) = (   0.1875000   0.3541667   0.0000000), wk =   0.0034722
        k(  179) = (   0.1875000   0.3750000   0.0000000), wk =   0.0034722
        k(  180) = (   0.1875000   0.3958333   0.0000000), wk =   0.0034722
        k(  181) = (   0.2083333   0.2083333   0.0000000), wk =   0.0034722
        k(  182) = (   0.2083333   0.2291667   0.0000000), wk =   0.0034722
        k(  183) = (   0.2083333   0.2500000   0.0000000), wk =   0.0034722
        k(  184) = (   0.2083333   0.2708333   0.0000000), wk =   0.0034722
        k(  185) = (   0.2083333   0.2916667   0.0000000), wk =   0.0034722
        k(  186) = (   0.2083333   0.3125000   0.0000000), wk =   0.0034722
        k(  187) = (   0.2083333   0.3333333   0.0000000), wk =   0.0034722
        k(  188) = (   0.2083333   0.3541667   0.0000000), wk =   0.0034722
        k(  189) = (   0.2083333   0.3750000   0.0000000), wk =   0.0034722
        k(  190) = (   0.2083333   0.3958333   0.0000000), wk =   0.0017361
        k(  191) = (   0.2291667   0.2291667   0.0000000), wk =   0.0034722
        k(  192) = (   0.2291667   0.2500000   0.0000000), wk =   0.0034722
        k(  193) = (   0.2291667   0.2708333   0.0000000), wk =   0.0034722
        k(  194) = (   0.2291667   0.2916667   0.0000000), wk =   0.0034722
        k(  195) = (   0.2291667   0.3125000   0.0000000), wk =   0.0034722
        k(  196) = (   0.2291667   0.3333333   0.0000000), wk =   0.0034722
        k(  197) = (   0.2291667   0.3541667   0.0000000), wk =   0.0034722
        k(  198) = (   0.2291667   0.3750000   0.0000000), wk =   0.0034722
        k(  199) = (   0.2500000   0.2500000   0.0000000), wk =   0.0034722
        k(  200) = (   0.2500000   0.2708333   0.0000000), wk =   0.0034722
        k(  201) = (   0.2500000   0.2916667   0.0000000), wk =   0.0034722
        k(  202) = (   0.2500000   0.3125000   0.0000000), wk =   0.0034722
        k(  203) = (   0.2500000   0.3333333   0.0000000), wk =   0.0034722
        k(  204) = (   0.2500000   0.3541667   0.0000000), wk =   0.0034722
        k(  205) = (   0.2500000   0.3750000   0.0000000), wk =   0.0017361
        k(  206) = (   0.2708333   0.2708333   0.0000000), wk =   0.0034722
        k(  207) = (   0.2708333   0.2916667   0.0000000), wk =   0.0034722
        k(  208) = (   0.2708333   0.3125000   0.0000000), wk =   0.0034722
        k(  209) = (   0.2708333   0.3333333   0.0000000), wk =   0.0034722
        k(  210) = (   0.2708333   0.3541667   0.0000000), wk =   0.0034722
        k(  211) = (   0.2916667   0.2916667   0.0000000), wk =   0.0034722
        k(  212) = (   0.2916667   0.3125000   0.0000000), wk =   0.0034722
        k(  213) = (   0.2916667   0.3333333   0.0000000), wk =   0.0034722
        k(  214) = (   0.2916667   0.3541667   0.0000000), wk =   0.0017361
        k(  215) = (   0.3125000   0.3125000   0.0000000), wk =   0.0034722
        k(  216) = (   0.3125000   0.3333333   0.0000000), wk =   0.0034722
        k(  217) = (   0.3333333   0.3333333   0.0000000), wk =   0.0017361
        k(  218) = (  -0.0208333   0.0208333   0.0000000), wk =   0.0034722
        k(  219) = (  -0.0416667   0.0416667   0.0000000), wk =   0.0034722
        k(  220) = (  -0.0625000   0.0625000   0.0000000), wk =   0.0034722
        k(  221) = (  -0.0833333   0.0833333   0.0000000), wk =   0.0034722
        k(  222) = (  -0.1041667   0.1041667   0.0000000), wk =   0.0034722
        k(  223) = (  -0.1250000   0.1250000   0.0000000), wk =   0.0034722
        k(  224) = (  -0.1458333   0.1458333   0.0000000), wk =   0.0034722
        k(  225) = (  -0.1666667   0.1666667   0.0000000), wk =   0.0034722
        k(  226) = (  -0.1875000   0.1875000   0.0000000), wk =   0.0034722
        k(  227) = (  -0.2083333   0.2083333   0.0000000), wk =   0.0034722
        k(  228) = (  -0.2291667   0.2291667   0.0000000), wk =   0.0034722
        k(  229) = (  -0.2500000   0.2500000   0.0000000), wk =   0.0034722
        k(  230) = (  -0.2708333   0.2708333   0.0000000), wk =   0.0034722
        k(  231) = (  -0.2916667   0.2916667   0.0000000), wk =   0.0034722
        k(  232) = (  -0.3125000   0.3125000   0.0000000), wk =   0.0034722
        k(  233) = (  -0.3333333   0.3333333   0.0000000), wk =   0.0034722
        k(  234) = (  -0.3541667   0.3541667   0.0000000), wk =   0.0034722
        k(  235) = (  -0.3750000   0.3750000   0.0000000), wk =   0.0034722
        k(  236) = (  -0.3958333   0.3958333   0.0000000), wk =   0.0034722
        k(  237) = (  -0.4166667   0.4166667   0.0000000), wk =   0.0034722
        k(  238) = (  -0.4375000   0.4375000   0.0000000), wk =   0.0034722
        k(  239) = (  -0.4583333   0.4583333   0.0000000), wk =   0.0034722
        k(  240) = (  -0.4791667   0.4791667   0.0000000), wk =   0.0034722
        k(  241) = (   0.5000000  -0.5000000   0.0000000), wk =   0.0017361
        k(  242) = (   0.0416667  -0.0208333   0.0000000), wk =   0.0017361
        k(  243) = (  -0.0416667   0.0625000   0.0000000), wk =   0.0034722
        k(  244) = (   0.0625000  -0.0208333   0.0000000), wk =   0.0034722
        k(  245) = (  -0.0625000   0.0833333   0.0000000), wk =   0.0034722
        k(  246) = (   0.0833333  -0.0208333   0.0000000), wk =   0.0034722
        k(  247) = (  -0.0833333   0.1041667   0.0000000), wk =   0.0034722
        k(  248) = (   0.1041667  -0.0208333   0.0000000), wk =   0.0034722
        k(  249) = (  -0.1041667   0.1250000   0.0000000), wk =   0.0034722
        k(  250) = (   0.1250000  -0.0208333   0.0000000), wk =   0.0034722
        k(  251) = (  -0.1250000   0.1458333   0.0000000), wk =   0.0034722
        k(  252) = (   0.1458333  -0.0208333   0.0000000), wk =   0.0034722
        k(  253) = (  -0.1458333   0.1666667   0.0000000), wk =   0.0034722
        k(  254) = (   0.1666667  -0.0208333   0.0000000), wk =   0.0034722
        k(  255) = (  -0.1666667   0.1875000   0.0000000), wk =   0.0034722
        k(  256) = (   0.1875000  -0.0208333   0.0000000), wk =   0.0034722
        k(  257) = (  -0.1875000   0.2083333   0.0000000), wk =   0.0034722
        k(  258) = (   0.2083333  -0.0208333   0.0000000), wk =   0.0034722
        k(  259) = (  -0.2083333   0.2291667   0.0000000), wk =   0.0034722
        k(  260) = (   0.2291667  -0.0208333   0.0000000), wk =   0.0034722
        k(  261) = (  -0.2291667   0.2500000   0.0000000), wk =   0.0034722
        k(  262) = (   0.2500000  -0.0208333   0.0000000), wk =   0.0034722
        k(  263) = (  -0.2500000   0.2708333   0.0000000), wk =   0.0034722
        k(  264) = (   0.2708333  -0.0208333   0.0000000), wk =   0.0034722
        k(  265) = (  -0.2708333   0.2916667   0.0000000), wk =   0.0034722
        k(  266) = (   0.2916667  -0.0208333   0.0000000), wk =   0.0034722
        k(  267) = (  -0.2916667   0.3125000   0.0000000), wk =   0.0034722
        k(  268) = (   0.3125000  -0.0208333   0.0000000), wk =   0.0034722
        k(  269) = (  -0.3125000   0.3333333   0.0000000), wk =   0.0034722
        k(  270) = (   0.3333333  -0.0208333   0.0000000), wk =   0.0034722
        k(  271) = (  -0.3333333   0.3541667   0.0000000), wk =   0.0034722
        k(  272) = (   0.3541667  -0.0208333   0.0000000), wk =   0.0034722
        k(  273) = (  -0.3541667   0.3750000   0.0000000), wk =   0.0034722
        k(  274) = (   0.3750000  -0.0208333   0.0000000), wk =   0.0034722
        k(  275) = (  -0.3750000   0.3958333   0.0000000), wk =   0.0034722
        k(  276) = (   0.3958333  -0.0208333   0.0000000), wk =   0.0034722
        k(  277) = (  -0.3958333   0.4166667   0.0000000), wk =   0.0034722
        k(  278) = (   0.4166667  -0.0208333   0.0000000), wk =   0.0034722
        k(  279) = (  -0.4166667   0.4375000   0.0000000), wk =   0.0034722
        k(  280) = (   0.4375000  -0.0208333   0.0000000), wk =   0.0034722
        k(  281) = (  -0.4375000   0.4583333   0.0000000), wk =   0.0034722
        k(  282) = (   0.4583333  -0.0208333   0.0000000), wk =   0.0034722
        k(  283) = (  -0.4583333   0.4791667   0.0000000), wk =   0.0034722
        k(  284) = (   0.4791667  -0.0208333   0.0000000), wk =   0.0034722
        k(  285) = (  -0.4791667   0.5000000   0.0000000), wk =   0.0034722
        k(  286) = (   0.5000000  -0.0208333   0.0000000), wk =   0.0034722
        k(  287) = (   0.0833333  -0.0416667   0.0000000), wk =   0.0017361
        k(  288) = (  -0.0625000   0.1041667   0.0000000), wk =   0.0034722
        k(  289) = (   0.1041667  -0.0416667   0.0000000), wk =   0.0034722
        k(  290) = (  -0.0833333   0.1250000   0.0000000), wk =   0.0034722
        k(  291) = (   0.1250000  -0.0416667   0.0000000), wk =   0.0034722
        k(  292) = (  -0.1041667   0.1458333   0.0000000), wk =   0.0034722
        k(  293) = (   0.1458333  -0.0416667   0.0000000), wk =   0.0034722
        k(  294) = (  -0.1250000   0.1666667   0.0000000), wk =   0.0034722
        k(  295) = (   0.1666667  -0.0416667   0.0000000), wk =   0.0034722
        k(  296) = (  -0.1458333   0.1875000   0.0000000), wk =   0.0034722
        k(  297) = (   0.1875000  -0.0416667   0.0000000), wk =   0.0034722
        k(  298) = (  -0.1666667   0.2083333   0.0000000), wk =   0.0034722
        k(  299) = (   0.2083333  -0.0416667   0.0000000), wk =   0.0034722
        k(  300) = (  -0.1875000   0.2291667   0.0000000), wk =   0.0034722
        k(  301) = (   0.2291667  -0.0416667   0.0000000), wk =   0.0034722
        k(  302) = (  -0.2083333   0.2500000   0.0000000), wk =   0.0034722
        k(  303) = (   0.2500000  -0.0416667   0.0000000), wk =   0.0034722
        k(  304) = (  -0.2291667   0.2708333   0.0000000), wk =   0.0034722
        k(  305) = (   0.2708333  -0.0416667   0.0000000), wk =   0.0034722
        k(  306) = (  -0.2500000   0.2916667   0.0000000), wk =   0.0034722
        k(  307) = (   0.2916667  -0.0416667   0.0000000), wk =   0.0034722
        k(  308) = (  -0.2708333   0.3125000   0.0000000), wk =   0.0034722
        k(  309) = (   0.3125000  -0.0416667   0.0000000), wk =   0.0034722
        k(  310) = (  -0.2916667   0.3333333   0.0000000), wk =   0.0034722
        k(  311) = (   0.3333333  -0.0416667   0.0000000), wk =   0.0034722
        k(  312) = (  -0.3125000   0.3541667   0.0000000), wk =   0.0034722
        k(  313) = (   0.3541667  -0.0416667   0.0000000), wk =   0.0034722
        k(  314) = (  -0.3333333   0.3750000   0.0000000), wk =   0.0034722
        k(  315) = (   0.3750000  -0.0416667   0.0000000), wk =   0.0034722
        k(  316) = (  -0.3541667   0.3958333   0.0000000), wk =   0.0034722
        k(  317) = (   0.3958333  -0.0416667   0.0000000), wk =   0.0034722
        k(  318) = (  -0.3750000   0.4166667   0.0000000), wk =   0.0034722
        k(  319) = (   0.4166667  -0.0416667   0.0000000), wk =   0.0034722
        k(  320) = (  -0.3958333   0.4375000   0.0000000), wk =   0.0034722
        k(  321) = (   0.4375000  -0.0416667   0.0000000), wk =   0.0034722
        k(  322) = (  -0.4166667   0.4583333   0.0000000), wk =   0.0034722
        k(  323) = (   0.4583333  -0.0416667   0.0000000), wk =   0.0034722
        k(  324) = (  -0.4375000   0.4791667   0.0000000), wk =   0.0034722
        k(  325) = (   0.4791667  -0.0416667   0.0000000), wk =   0.0034722
        k(  326) = (  -0.4583333   0.5000000   0.0000000), wk =   0.0034722
        k(  327) = (   0.5000000  -0.0416667   0.0000000), wk =   0.0034722
        k(  328) = (  -0.4791667   0.5208333   0.0000000), wk =   0.0034722
        k(  329) = (   0.1250000  -0.0625000   0.0000000), wk =   0.0017361
        k(  330) = (  -0.0833333   0.1458333   0.0000000), wk =   0.0034722
        k(  331) = (   0.1458333  -0.0625000   0.0000000), wk =   0.0034722
        k(  332) = (  -0.1041667   0.1666667   0.0000000), wk =   0.0034722
        k(  333) = (   0.1666667  -0.0625000   0.0000000), wk =   0.0034722
        k(  334) = (  -0.1250000   0.1875000   0.0000000), wk =   0.0034722
        k(  335) = (   0.1875000  -0.0625000   0.0000000), wk =   0.0034722
        k(  336) = (  -0.1458333   0.2083333   0.0000000), wk =   0.0034722
        k(  337) = (   0.2083333  -0.0625000   0.0000000), wk =   0.0034722
        k(  338) = (  -0.1666667   0.2291667   0.0000000), wk =   0.0034722
        k(  339) = (   0.2291667  -0.0625000   0.0000000), wk =   0.0034722
        k(  340) = (  -0.1875000   0.2500000   0.0000000), wk =   0.0034722
        k(  341) = (   0.2500000  -0.0625000   0.0000000), wk =   0.0034722
        k(  342) = (  -0.2083333   0.2708333   0.0000000), wk =   0.0034722
        k(  343) = (   0.2708333  -0.0625000   0.0000000), wk =   0.0034722
        k(  344) = (  -0.2291667   0.2916667   0.0000000), wk =   0.0034722
        k(  345) = (   0.2916667  -0.0625000   0.0000000), wk =   0.0034722
        k(  346) = (  -0.2500000   0.3125000   0.0000000), wk =   0.0034722
        k(  347) = (   0.3125000  -0.0625000   0.0000000), wk =   0.0034722
        k(  348) = (  -0.2708333   0.3333333   0.0000000), wk =   0.0034722
        k(  349) = (   0.3333333  -0.0625000   0.0000000), wk =   0.0034722
        k(  350) = (  -0.2916667   0.3541667   0.0000000), wk =   0.0034722
        k(  351) = (   0.3541667  -0.0625000   0.0000000), wk =   0.0034722
        k(  352) = (  -0.3125000   0.3750000   0.0000000), wk =   0.0034722
        k(  353) = (   0.3750000  -0.0625000   0.0000000), wk =   0.0034722
        k(  354) = (  -0.3333333   0.3958333   0.0000000), wk =   0.0034722
        k(  355) = (   0.3958333  -0.0625000   0.0000000), wk =   0.0034722
        k(  356) = (  -0.3541667   0.4166667   0.0000000), wk =   0.0034722
        k(  357) = (   0.4166667  -0.0625000   0.0000000), wk =   0.0034722
        k(  358) = (  -0.3750000   0.4375000   0.0000000), wk =   0.0034722
        k(  359) = (   0.4375000  -0.0625000   0.0000000), wk =   0.0034722
        k(  360) = (  -0.3958333   0.4583333   0.0000000), wk =   0.0034722
        k(  361) = (   0.4583333  -0.0625000   0.0000000), wk =   0.0034722
        k(  362) = (  -0.4166667   0.4791667   0.0000000), wk =   0.0034722
        k(  363) = (   0.4791667  -0.0625000   0.0000000), wk =   0.0034722
        k(  364) = (  -0.4375000   0.5000000   0.0000000), wk =   0.0034722
        k(  365) = (   0.5000000  -0.0625000   0.0000000), wk =   0.0034722
        k(  366) = (  -0.4583333   0.5208333   0.0000000), wk =   0.0034722
        k(  367) = (   0.5208333  -0.0625000   0.0000000), wk =   0.0034722
        k(  368) = (   0.1666667  -0.0833333   0.0000000), wk =   0.0017361
        k(  369) = (  -0.1041667   0.1875000   0.0000000), wk =   0.0034722
        k(  370) = (   0.1875000  -0.0833333   0.0000000), wk =   0.0034722
[...]

     occupation numbers 
     1.0000   1.0000   1.0000   1.0000   0.0000   0.0000   0.0000   0.0000

          k = 0.4583 0.0000 0.0000 (  2691 PWs)   bands (ev):

   -17.5841 -11.6108 -10.0284  -5.1191   1.9614   6.5818   7.4156   8.0027

     occupation numbers 
     1.0000   1.0000   1.0000   1.0000   0.0000   0.0000   0.0000   0.0000

          k =-0.2500 0.4090 0.0000 (  2691 PWs)   bands (ev):

   -17.2581 -11.9295 -10.3395  -4.7756   1.5512   7.0458   7.8345   8.4815

     occupation numbers 
     1.0000   1.0000   1.0000   1.0000   0.0000   0.0000   0.0000   0.0000

          k = 0.4792 0.0120 0.0000 (  2691 PWs)   bands (ev):

   -17.2589 -11.9533 -10.3127  -4.7667   1.5298   7.0460   7.8382   8.4820

     occupation numbers 
     1.0000   1.0000   1.0000   1.0000   0.0000   0.0000   0.0000   0.0000

          k =-0.2708 0.4210 0.0000 (  2701 PWs)   bands (ev):

   -16.9182 -12.3069 -10.5660  -4.4157   1.1207   7.5342   8.2542   8.9874

     occupation numbers 
     1.0000   1.0000   1.0000   1.0000   0.0000   0.0000   0.0000   0.0000

          k = 0.5000 0.0241 0.0000 (  2701 PWs)   bands (ev):

   -16.9187 -12.3260 -10.5445  -4.4064   1.1003   7.5345   8.2591   8.9880

     occupation numbers 
     1.0000   1.0000   1.0000   1.0000   0.0000   0.0000   0.0000   0.0000

          k =-0.2917 0.4330 0.0000 (  2705 PWs)   bands (ev):

   -16.5652 -12.7071 -10.7427  -4.0536   0.6983   8.0454   8.6490   9.5174

     occupation numbers 
     1.0000   1.0000   1.0000   1.0000   0.0000   0.0000   0.0000   0.0000

          k = 0.5208 0.0361 0.0000 (  2705 PWs)   bands (ev):

   -16.5655 -12.7216 -10.7264  -4.0439   0.6794   8.0458   8.6554   9.5188

     occupation numbers 
     1.0000   1.0000   1.0000   1.0000   0.0000   0.0000   0.0000   0.0000

          k =-0.3125 0.4450 0.0000 (  2707 PWs)   bands (ev):

   -16.2023 -13.1185 -10.8756  -3.6990   0.2944   8.5767   8.9818   9.9866

     occupation numbers 
     1.0000   1.0000   1.0000   1.0000   0.0000   0.0000   0.0000   0.0000

          k = 0.5417 0.0481 0.0000 (  2707 PWs)   bands (ev):

   -16.2022 -13.1292 -10.8639  -3.6893   0.2774   8.5776   8.9896   9.9970

     occupation numbers 
     1.0000   1.0000   1.0000   1.0000   0.0000   0.0000   0.0000   0.0000

          k =-0.3333 0.4571 0.0000 (  2709 PWs)   bands (ev):

   -15.8362 -13.5272 -10.9705  -3.3690  -0.0734   9.1226   9.2140   9.9946

     occupation numbers 
     1.0000   1.0000   1.0000   1.0000   0.0000   0.0000   0.0000   0.0000

          k = 0.5625 0.0601 0.0000 (  2709 PWs)   bands (ev):

   -15.8357 -13.5348 -10.9626  -3.3601  -0.0876   9.1248   9.2218   9.9952

     occupation numbers 
     1.0000   1.0000   1.0000   1.0000   0.0000   0.0000   0.0000   0.0000

          k =-0.3542 0.4691 0.0000 (  2709 PWs)   bands (ev):

   -15.4848 -13.9101 -11.0313  -3.0952  -0.3730   9.3410   9.6603   9.9951

     occupation numbers 
     1.0000   1.0000   1.0000   1.0000   0.0000   0.0000   0.0000   0.0000

          k = 0.5833 0.0722 0.0000 (  2709 PWs)   bands (ev):

   -15.4838 -13.9151 -11.0268  -3.0884  -0.3831   9.3465   9.6691   9.9848

     occupation numbers 
     1.0000   1.0000   1.0000   1.0000   0.0000   0.0000   0.0000   0.0000

          k =-0.3750 0.4811 0.0000 (  2707 PWs)   bands (ev):

   -15.2141 -14.1978 -11.0604  -2.9299  -0.5520   9.3928   9.9119  10.2776

     occupation numbers 
     1.0000   1.0000   1.0000   1.0000   0.0000   0.0000   0.0000   0.0000

          k = 0.6042 0.0842 0.0000 (  2707 PWs)   bands (ev):

   -15.2134 -14.1999 -11.0589  -2.9272  -0.5557   9.3948   9.9186  10.2657

     occupation numbers 
     1.0000   1.0000   1.0000   1.0000   0.0000   0.0000   0.0000   0.0000

          k = 0.5000 0.0000 0.0000 (  2707 PWs)   bands (ev):

   -16.9281 -12.2426 -10.6306  -4.4119   1.1210   7.5209   8.2400   8.9744

     occupation numbers 
     1.0000   1.0000   1.0000   1.0000   0.0000   0.0000   0.0000   0.0000

          k =-0.2708 0.4450 0.0000 (  2709 PWs)   bands (ev):

   -16.5832 -12.5421 -10.9166  -4.0618   0.7363   8.0187   8.6053   9.4925

     occupation numbers 
     1.0000   1.0000   1.0000   1.0000   0.0000   0.0000   0.0000   0.0000

          k = 0.5208 0.0120 0.0000 (  2709 PWs)   bands (ev):

   -16.5834 -12.5640 -10.8927  -4.0506   0.7142   8.0189   8.6121   9.4933

     occupation numbers 
     1.0000   1.0000   1.0000   1.0000   0.0000   0.0000   0.0000   0.0000

          k =-0.2917 0.4571 0.0000 (  2709 PWs)   bands (ev):

   -16.2277 -12.8980 -11.1147  -3.7008   0.3364   8.5372   8.9054  10.0345

     occupation numbers 
     1.0000   1.0000   1.0000   1.0000   0.0000   0.0000   0.0000   0.0000

          k = 0.5417 0.0241 0.0000 (  2709 PWs)   bands (ev):

   -16.2274 -12.9153 -11.0963  -3.6893   0.3159   8.5377   8.9140  10.0364

     occupation numbers 
     1.0000   1.0000   1.0000   1.0000   0.0000   0.0000   0.0000   0.0000

          k =-0.3125 0.4691 0.0000 (  2705 PWs)   bands (ev):

   -15.8651 -13.2731 -11.2585  -3.3509  -0.0441   9.0725   9.0994  10.5113

     occupation numbers 
     1.0000   1.0000   1.0000   1.0000   0.0000   0.0000   0.0000   0.0000

          k = 0.5625 0.0361 0.0000 (  2705 PWs)   bands (ev):

   -15.8644 -13.2860 -11.2453  -3.3396  -0.0624   9.0735   9.1083  10.5197

     occupation numbers 
     1.0000   1.0000   1.0000   1.0000   0.0000   0.0000   0.0000   0.0000

          k =-0.3333 0.4811 0.0000 (  2715 PWs)   bands (ev):

   -15.5058 -13.6488 -11.3549  -3.0337  -0.3837   9.1941   9.6162  10.5194

     occupation numbers 
     1.0000   1.0000   1.0000   1.0000   0.0000   0.0000   0.0000   0.0000

          k = 0.5833 0.0481 0.0000 (  2715 PWs)   bands (ev):

   -15.5044 -13.6578 -11.3466  -3.0236  -0.3985   9.2012   9.6188  10.5145

     occupation numbers 
     1.0000   1.0000   1.0000   1.0000   0.0000   0.0000   0.0000   0.0000

          k =-0.3542 0.4932 0.0000 (  2709 PWs)   bands (ev):

   -15.1813 -13.9864 -11.4097  -2.7918  -0.6396   9.2298  10.1413  10.5151

     occupation numbers 
     1.0000   1.0000   1.0000   1.0000   0.0000   0.0000   0.0000   0.0000

          k = 0.6042 0.0601 0.0000 (  2709 PWs)   bands (ev):

   -15.1796 -13.9917 -11.4057  -2.7854  -0.6484   9.2336  10.1512  10.4974

     occupation numbers 
     1.0000   1.0000   1.0000   1.0000   0.0000   0.0000   0.0000   0.0000

          k =-0.3750 0.5052 0.0000 (  2711 PWs)   bands (ev):

   -15.0171 -14.1566 -11.4263  -2.6942  -0.7426   9.2393  10.4215  10.6073

     occupation numbers 
     1.0000   1.0000   1.0000   1.0000   0.0000   0.0000   0.0000   0.0000

          k = 0.5417-0.0000 0.0000 (  2715 PWs)   bands (ev):

   -16.2359 -12.8297 -11.1881  -3.6894   0.3294   8.5243   8.8882  10.0242

     occupation numbers 
     1.0000   1.0000   1.0000   1.0000   0.0000   0.0000   0.0000   0.0000

          k =-0.2917 0.4811 0.0000 (  2713 PWs)   bands (ev):

   -15.8804 -13.1080 -11.4405  -3.3437  -0.0256   9.0395   9.0466  10.5750

     occupation numbers 
     1.0000   1.0000   1.0000   1.0000   0.0000   0.0000   0.0000   0.0000

          k = 0.5625 0.0120 0.0000 (  2713 PWs)   bands (ev):

   -15.8792 -13.1280 -11.4202  -3.3298  -0.0480   9.0472   9.0495  10.5772

     occupation numbers 
     1.0000   1.0000   1.0000   1.0000   0.0000   0.0000   0.0000   0.0000

          k =-0.3125 0.4932 0.0000 (  2711 PWs)   bands (ev):

   -15.5215 -13.4374 -11.6015  -2.9986  -0.3856   9.1008   9.5798  10.9880

     occupation numbers 
     1.0000   1.0000   1.0000   1.0000   0.0000   0.0000   0.0000   0.0000

          k = 0.5833 0.0241 0.0000 (  2711 PWs)   bands (ev):

   -15.5195 -13.4527 -11.5872  -2.9850  -0.4053   9.1093   9.5811  10.9835

     occupation numbers 
     1.0000   1.0000   1.0000   1.0000   0.0000   0.0000   0.0000   0.0000

          k =-0.3333 0.5052 0.0000 (  2715 PWs)   bands (ev):

   -15.1755 -13.7710 -11.7023  -2.6951  -0.6993   9.1109  10.1093  10.9678

     occupation numbers 
     1.0000   1.0000   1.0000   1.0000   0.0000   0.0000   0.0000   0.0000

          k = 0.6042 0.0361 0.0000 (  2715 PWs)   bands (ev):

   -15.1728 -13.7816 -11.6938  -2.6838  -0.7143   9.1164  10.1128  10.9497

     occupation numbers 
     1.0000   1.0000   1.0000   1.0000   0.0000   0.0000   0.0000   0.0000

          k =-0.3542 0.5172 0.0000 (  2707 PWs)   bands (ev):

   -14.9021 -14.0417 -11.7494  -2.4952  -0.9047   9.1082  10.5937  10.9094

     occupation numbers 
     1.0000   1.0000   1.0000   1.0000   0.0000   0.0000   0.0000   0.0000

          k = 0.6250 0.0481 0.0000 (  2707 PWs)   bands (ev):

   -14.9000 -14.0463 -11.7466  -2.4903  -0.9109   9.1100  10.6059  10.8807

     occupation numbers 
     1.0000   1.0000   1.0000   1.0000   0.0000   0.0000   0.0000   0.0000

          k = 0.5833 0.0000 0.0000 (  2717 PWs)   bands (ev):

   -15.5250 -13.3699 -11.6815  -2.9722  -0.4072   9.0778   9.5681  11.2721

     occupation numbers 
     1.0000   1.0000   1.0000   1.0000   0.0000   0.0000   0.0000   0.0000

          k =-0.3125 0.5172 0.0000 (  2713 PWs)   bands (ev):

   -15.1773 -13.6238 -11.8839  -2.6470  -0.7271   9.0481  10.0870  11.2902

     occupation numbers 
     1.0000   1.0000   1.0000   1.0000   0.0000   0.0000   0.0000   0.0000

          k = 0.6042 0.0120 0.0000 (  2713 PWs)   bands (ev):

   -15.1732 -13.6417 -11.8692  -2.6304  -0.7489   9.0551  10.0890  11.2594

     occupation numbers 
     1.0000   1.0000   1.0000   1.0000   0.0000   0.0000   0.0000   0.0000

          k =-0.3333 0.5292 0.0000 (  2713 PWs)   bands (ev):

   -14.8541 -13.9072 -11.9885  -2.3553  -1.0204   9.0222  10.5782  11.2208

     occupation numbers 
     1.0000   1.0000   1.0000   1.0000   0.0000   0.0000   0.0000   0.0000

          k = 0.6250 0.0241 0.0000 (  2713 PWs)   bands (ev):

   -14.8492 -13.9191 -11.9810  -2.3427  -1.0357   9.0259  10.5837  11.1905

     occupation numbers 
     1.0000   1.0000   1.0000   1.0000   0.0000   0.0000   0.0000   0.0000

          k =-0.3542 0.5413 0.0000 (  2715 PWs)   bands (ev):

   -14.6762 -14.0749 -12.0202  -2.2173  -1.1598   9.0127  10.9347  11.0473

     occupation numbers 
     1.0000   1.0000   1.0000   1.0000   0.0000   0.0000   0.0000   0.0000

          k = 0.6250 0.0000 0.0000 (  2715 PWs)   bands (ev):

   -14.8360 -13.8615 -12.0707  -2.2866  -1.0839   8.9968  10.5738  11.3062

     occupation numbers 
     1.0000   1.0000   1.0000   1.0000   0.0000   0.0000   0.0000   0.0000

          k =-0.3333 0.5533 0.0000 (  2725 PWs)   bands (ev):

   -14.5541 -14.0751 -12.1818  -2.0165  -1.3472   8.9595  10.9697  11.2568

     occupation numbers 
     1.0000   1.0000   1.0000   1.0000   0.0000   0.0000   0.0000   0.0000

          k = 0.6458 0.0120 0.0000 (  2725 PWs)   bands (ev):

   -14.5461 -14.0876 -12.1771  -2.0025  -1.3626   8.9613  10.9797  11.2345

     occupation numbers 
     1.0000   1.0000   1.0000   1.0000   0.0000   0.0000   0.0000   0.0000

     the Fermi energy is    -1.6916 ev

!    total energy              =     -36.88702906 Ry
     total all-electron energy =      -152.415225 Ry
     estimated scf accuracy    <          3.2E-11 Ry
     smearing contrib. (-TS)   =      -0.00000000 Ry
     internal energy E=F+TS    =     -36.88702906 Ry

     The total energy is F=E-TS. E is the sum of the following terms:
     one-electron contribution =    -153.73032018 Ry
     hartree contribution      =      78.49568419 Ry
     xc contribution           =      -9.27307778 Ry
     ewald contribution        =      59.95431283 Ry
     one-center paw contrib.   =     -12.33362811 Ry
      -> PAW hartree energy AE =      19.03858986 Ry
      -> PAW hartree energy PS =     -19.02134375 Ry
      -> PAW xc energy AE      =     -21.36113412 Ry
      -> PAW xc energy PS      =       9.01025989 Ry
      -> total E_H with PAW    =      78.51293030 Ry
      -> total E_XC with PAW   =     -21.62395200 Ry

     convergence has been achieved in  10 iterations

     negative rho (up, down):  4.537E-05 0.000E+00

     Forces acting on atoms (cartesian axes, Ry/au):

     atom    1 type  1   force =     0.00000000    0.00495185    0.00000000
     atom    2 type  1   force =     0.00000000   -0.00495185    0.00000000
     The non-local contrib.  to forces
     atom    1 type  1   force =     0.00000000    0.00511329    0.00000000
     atom    2 type  1   force =     0.00000000   -0.00511584    0.00000000
     The ionic contribution  to forces
     atom    1 type  1   force =    -0.00000000    0.01771988   -0.00000000
     atom    2 type  1   force =     0.00000000   -0.01771988   -0.00000000
     The local contribution  to forces
     atom    1 type  1   force =     0.00000000   -0.01772982    0.00000000
     atom    2 type  1   force =    -0.00000000    0.01773261    0.00000000
     The core correction contribution to forces
     atom    1 type  1   force =    -0.00000000   -0.00015606    0.00000000
     atom    2 type  1   force =    -0.00000000    0.00014814    0.00000000
     The Hubbard contrib.    to forces
     atom    1 type  1   force =     0.00000000    0.00000000    0.00000000
     atom    2 type  1   force =     0.00000000    0.00000000    0.00000000
     The SCF correction term to forces
     atom    1 type  1   force =     0.00000000    0.00000069   -0.00000000
     atom    2 type  1   force =     0.00000000   -0.00000075    0.00000000

     Total force =     0.007003     Total SCF correction =     0.000001


     Computing stress (Cartesian axis) and pressure


     negative rho (up, down):  4.537E-05 0.000E+00
          total   stress  (Ry/bohr**3)                   (kbar)     P=        0.39
   0.00000789   0.00000000   0.00000000            1.16        0.00        0.00
   0.00000000   0.00000258  -0.00000000            0.00        0.38       -0.00
   0.00000000  -0.00000000  -0.00000260            0.00       -0.00       -0.38

     kinetic stress (kbar)   2623.31      0.00      0.00
                                0.00   2627.16     -0.00
                                0.00      0.00   2980.11

     local   stress (kbar) -46704.18      0.00      0.00
                                0.00 -46681.33     -0.00
                                0.00     -0.00  46504.22

     nonloc. stress (kbar)    661.46      0.00      0.00
                                0.00    660.50      0.00
                                0.00      0.00    602.71

     hartree stress (kbar)  21757.70     -0.00     -0.00
                               -0.00  21754.47      0.00
                               -0.00      0.00 -21522.91

     exc-cor stress (kbar)    -47.00      0.00     -0.00
                                0.00    -47.15     -0.00
                               -0.00     -0.00    -76.89

     corecor stress (kbar)   -632.43     -0.00     -0.00
                               -0.00   -632.31     -0.00
                               -0.00     -0.00   -621.50

     ewald   stress (kbar)  22342.29      0.00     -0.00
                                0.00  22319.04     -0.00
                               -0.00     -0.00 -27866.13

     hubbard stress (kbar)      0.00      0.00      0.00
                                0.00      0.00      0.00
                                0.00      0.00      0.00

     DFT-D   stress (kbar)      0.00      0.00      0.00
                                0.00      0.00      0.00
                                0.00      0.00      0.00

     XDM     stress (kbar)      0.00      0.00      0.00
                                0.00      0.00      0.00
                                0.00      0.00      0.00

     dft-nl  stress (kbar)      0.00      0.00      0.00
                                0.00      0.00      0.00
                                0.00      0.00      0.00

     TS-vdW  stress (kbar)      0.00      0.00      0.00
                                0.00      0.00      0.00
                                0.00      0.00      0.00

     MDB     stress (kbar)      0.00      0.00      0.00
                                0.00      0.00      0.00
                                0.00      0.00      0.00

     3D-RISM stress (kbar)      0.00      0.00      0.00
                                0.00      0.00      0.00
                                0.00      0.00      0.00


     Writing all to output data dir ./tmp/graphene.save/ :
     XML data file, charge density, pseudopotentials, collected wavefunctions

     init_run     :     12.83s CPU     13.36s WALL (       1 calls)
     electrons    :    345.57s CPU    376.76s WALL (       1 calls)
     forces       :      1.31s CPU      1.55s WALL (       1 calls)
     stress       :      7.65s CPU      8.81s WALL (       1 calls)

     Called by init_run:
     wfcinit      :     11.03s CPU     11.28s WALL (       1 calls)
     wfcinit:atom :      0.36s CPU      0.28s WALL (     601 calls)
     wfcinit:wfcr :      8.82s CPU      9.53s WALL (     601 calls)
     potinit      :      0.71s CPU      0.78s WALL (       1 calls)
     hinit0       :      0.75s CPU      0.80s WALL (       1 calls)

     Called by electrons:
     c_bands      :    319.29s CPU    348.57s WALL (      10 calls)
     sum_band     :     23.16s CPU     24.42s WALL (      10 calls)
     v_of_rho     :      1.07s CPU      1.22s WALL (      11 calls)
     v_h          :      0.05s CPU      0.07s WALL (      11 calls)
     v_xc         :      1.20s CPU      1.35s WALL (      13 calls)
     newd         :      0.70s CPU      1.15s WALL (      11 calls)
     PAW_pot      :      1.41s CPU      1.47s WALL (      11 calls)
     mix_rho      :      0.12s CPU      0.12s WALL (      10 calls)

     Called by c_bands:
     init_us_2    :     11.18s CPU      9.75s WALL (   13823 calls)
     cegterg      :    302.64s CPU    336.26s WALL (    6010 calls)

     Called by sum_band:
     sum_band:wei :      0.01s CPU      0.01s WALL (      10 calls)
     sum_band:loo :     21.97s CPU     23.09s WALL (      10 calls)
     sum_band:buf :      0.27s CPU      0.34s WALL (    6010 calls)
     sum_band:ini :      3.91s CPU      4.15s WALL (    6010 calls)
     sum_band:cal :      1.14s CPU      1.24s WALL (    6010 calls)
     sum_band:bec :      0.05s CPU      0.05s WALL (    6010 calls)
     addusdens    :      1.06s CPU      1.21s WALL (      10 calls)
                                        0.00s GPU  (      10 calls)
     addusd:skk   :      0.01s CPU      0.01s WALL (      10 calls)
                                        0.00s GPU  (      10 calls)

     Called by *egterg:
     cdiaghg      :      5.49s CPU      3.93s WALL (   26817 calls)
     cegterg:over :      6.94s CPU      5.08s WALL (   20807 calls)
     cegterg:upda :      9.69s CPU     10.58s WALL (   20807 calls)
     cegterg:last :     13.56s CPU     14.62s WALL (   13633 calls)
     h_psi        :    256.96s CPU    286.38s WALL (   27418 calls)
     s_psi        :     12.03s CPU     19.95s WALL (   27418 calls)
     g_psi        :      1.80s CPU      1.30s WALL (   20807 calls)

     Called by h_psi:
     h_psi:calbec :      9.59s CPU     13.19s WALL (   27418 calls)
     vloc_psi     :    188.61s CPU    149.34s WALL (   27418 calls)
     add_vuspsi   :     57.05s CPU    122.46s WALL (   27418 calls)

     General routines
     calbec       :     12.09s CPU     16.13s WALL (   43645 calls)
     fft          :      0.87s CPU      0.87s WALL (     166 calls)
     ffts         :      0.44s CPU      0.48s WALL (      21 calls)
     fftw         :    125.55s CPU    101.88s WALL (  323822 calls)
     interpolate  :      0.48s CPU      0.51s WALL (      11 calls)


     PAW routines
     PAW_pot      :      1.41s CPU      1.47s WALL (      11 calls)
     PAW_symme    :      0.00s CPU      0.00s WALL (      21 calls)

     PWSCF        :   6m 7.77s CPU   6m41.33s WALL


   This run was terminated on:  21:53: 3   9Sep2025            

=------------------------------------------------------------------------------=
   JOB DONE.
=------------------------------------------------------------------------------=
