
     Program PWSCF v.7.4.1 starts on  9Sep2025 at 21:56: 6 

     This program is part of the open-source Quantum ESPRESSO suite
     for quantum simulation of materials; please cite
         "P. Giannozzi et al., J. Phys.:Condens. Matter 21 395502 (2009);
         "P. Giannozzi et al., J. Phys.:Condens. Matter 29 465901 (2017);
         "P. Giannozzi et al., J. Chem. Phys. 152 154105 (2020);
          URL http://www.quantum-espresso.org", 
     in publications or presentations arising from this work. More details at
     http://www.quantum-espresso.org/quote

     Serial version
     1912 MiB available memory on the printing compute node when the environment starts

     Reading input from graphene_nscf.in

     Current dimensions of program PWSCF are:
     Max number of different atomic species (ntypx) = 10
     Max number of k-points (npk) =  40000
     Max angular momentum in pseudopotentials (lmaxx) =  4
     file C.pbe-n-kjpaw_psl.1.0.0.UPF: wavefunction(s)  2S 2P renormalized

     Atomic positions and unit cell read from directory:
     ./tmp/graphene.save/



     G-vector sticks info
     --------------------
     sticks:   dense  smooth     PW     G-vecs:    dense   smooth      PW
     Sum         673     265     85                84753    21323    3919

     Using Slab Decomposition



     bravais-lattice index     =            4
     lattice parameter (alat)  =       4.6604  a.u.
     unit-cell volume          =     525.1250 (a.u.)^3
     number of atoms/cell      =            2
     number of atomic types    =            1
     number of electrons       =         8.00
     number of Kohn-Sham states=            8
     kinetic-energy cutoff     =      45.0000  Ry
     charge density cutoff     =     450.0000  Ry
     Exchange-correlation= SLA  PW   PBX  PBC
                           (   1   4   3   4   0   0   0)

     celldm(1)=   4.660415  celldm(2)=   0.000000  celldm(3)=   5.990434
     celldm(4)=   0.000000  celldm(5)=   0.000000  celldm(6)=   0.000000

     crystal axes: (cart. coord. in units of alat)
               a(1) = (   1.000000   0.000000   0.000000 )  
               a(2) = (  -0.500000   0.866025   0.000000 )  
               a(3) = (   0.000000   0.000000   5.990434 )  

     reciprocal axes: (cart. coord. in units 2 pi/alat)
               b(1) = (  1.000000  0.577350 -0.000000 )  
               b(2) = (  0.000000  1.154701  0.000000 )  
               b(3) = (  0.000000 -0.000000  0.166933 )  


     PseudoPot. # 1 for C  read from file:
     ../pseudos/C.pbe-n-kjpaw_psl.1.0.0.UPF
     MD5 check sum: 5d2aebdfa2cae82b50a7e79e9516da0f
     Pseudo is Projector augmented-wave + core cor, Zval =  4.0
     Generated using "atomic" code by A. Dal Corso  v.5.1
     Shape of augmentation charge: PSQ
     Using radial grid of 1073 points,  4 beta functions with: 
                l(1) =   0
                l(2) =   0
                l(3) =   1
                l(4) =   1
     Q(r) pseudized with 0 coefficients 


     atomic species   valence    mass     pseudopotential
     C                 4.00    12.01070     C ( 1.00)

      4 Sym. Ops. (no inversion) found


                                    s                        frac. trans.

      isym =  1     identity                                     

 cryst.   s( 1) = (     1          0          0      )
                  (     0          1          0      )
                  (     0          0          1      )

 cart.    s( 1) = (  1.0000000  0.0000000  0.0000000 )
                  (  0.0000000  1.0000000  0.0000000 )
                  (  0.0000000  0.0000000  1.0000000 )


      isym =  2     180 deg rotation - cart. axis [0,1,0]        

 cryst.   s( 2) = (    -1          0          0      )
                  (     1          1          0      )
                  (     0          0         -1      )

 cart.    s( 2) = ( -1.0000000  0.0000000  0.0000000 )
                  (  0.0000000  1.0000000  0.0000000 )
                  (  0.0000000  0.0000000 -1.0000000 )


      isym =  3     inv. 180 deg rotation - cart. axis [0,0,1]   

 cryst.   s( 3) = (     1          0          0      )
                  (     0          1          0      )
                  (     0          0         -1      )

 cart.    s( 3) = (  1.0000000  0.0000000  0.0000000 )
                  (  0.0000000  1.0000000  0.0000000 )
                  (  0.0000000  0.0000000 -1.0000000 )


      isym =  4     inv. 180 deg rotation - cart. axis [1,0,0]   

 cryst.   s( 4) = (    -1          0          0      )
                  (     1          1          0      )
                  (     0          0          1      )

 cart.    s( 4) = ( -1.0000000  0.0000000  0.0000000 )
                  (  0.0000000  1.0000000  0.0000000 )
                  (  0.0000000  0.0000000  1.0000000 )


     point group C_2v (mm2) 
     there are  4 classes
     the character table:

       E     C2    s_v   s_v' 
A_1    1.00  1.00  1.00  1.00
A_2    1.00  1.00 -1.00 -1.00
B_1    1.00 -1.00  1.00 -1.00
B_2    1.00 -1.00 -1.00  1.00

     the symmetry operations in each class and the name of the first element:

     E        1
          identity                                               
     C2       2
          180 deg rotation - cart. axis [0,1,0]                  
     s_v      3
          inv. 180 deg rotation - cart. axis [0,0,1]             
     s_v'     4
          inv. 180 deg rotation - cart. axis [1,0,0]             

   Cartesian axes

     site n.     atom                  positions (alat units)
         1        C      tau(   1) = (   0.0000000   0.0000000   0.0000000  )
         2        C      tau(   2) = (   0.0000000   0.5783938   0.0000000  )

   Crystallographic axes

     site n.     atom                  positions (cryst. coord.)
         1        C      tau(   1) = (  0.0000000  0.0000000  0.0000000  )
         2        C      tau(   2) = (  0.3339358  0.6678717  0.0000000  )

     number of k points=  2353 (tetrahedron method)
                       cart. coord. in units 2pi/alat
        k(    1) = (   0.0000000   0.0000000   0.0000000), wk =   0.0002170
        k(    2) = (   0.0000000   0.0120281   0.0000000), wk =   0.0004340
        k(    3) = (   0.0000000   0.0240563   0.0000000), wk =   0.0004340
        k(    4) = (   0.0000000   0.0360844   0.0000000), wk =   0.0004340
        k(    5) = (   0.0000000   0.0481125   0.0000000), wk =   0.0004340
        k(    6) = (   0.0000000   0.0601407   0.0000000), wk =   0.0004340
        k(    7) = (   0.0000000   0.0721688   0.0000000), wk =   0.0004340
        k(    8) = (   0.0000000   0.0841969   0.0000000), wk =   0.0004340
        k(    9) = (   0.0000000   0.0962250   0.0000000), wk =   0.0004340
        k(   10) = (   0.0000000   0.1082532   0.0000000), wk =   0.0004340
        k(   11) = (   0.0000000   0.1202813   0.0000000), wk =   0.0004340
        k(   12) = (   0.0000000   0.1323094   0.0000000), wk =   0.0004340
        k(   13) = (   0.0000000   0.1443376   0.0000000), wk =   0.0004340
        k(   14) = (   0.0000000   0.1563657   0.0000000), wk =   0.0004340
        k(   15) = (   0.0000000   0.1683938   0.0000000), wk =   0.0004340
        k(   16) = (   0.0000000   0.1804220   0.0000000), wk =   0.0004340
        k(   17) = (   0.0000000   0.1924501   0.0000000), wk =   0.0004340
        k(   18) = (   0.0000000   0.2044782   0.0000000), wk =   0.0004340
        k(   19) = (   0.0000000   0.2165064   0.0000000), wk =   0.0004340
        k(   20) = (   0.0000000   0.2285345   0.0000000), wk =   0.0004340
        k(   21) = (   0.0000000   0.2405626   0.0000000), wk =   0.0004340
        k(   22) = (   0.0000000   0.2525907   0.0000000), wk =   0.0004340
        k(   23) = (   0.0000000   0.2646189   0.0000000), wk =   0.0004340
        k(   24) = (   0.0000000   0.2766470   0.0000000), wk =   0.0004340
        k(   25) = (   0.0000000   0.2886751   0.0000000), wk =   0.0004340
        k(   26) = (   0.0000000   0.3007033   0.0000000), wk =   0.0004340
        k(   27) = (   0.0000000   0.3127314   0.0000000), wk =   0.0004340
        k(   28) = (   0.0000000   0.3247595   0.0000000), wk =   0.0004340
        k(   29) = (   0.0000000   0.3367877   0.0000000), wk =   0.0004340
        k(   30) = (   0.0000000   0.3488158   0.0000000), wk =   0.0004340
        k(   31) = (   0.0000000   0.3608439   0.0000000), wk =   0.0004340
        k(   32) = (   0.0000000   0.3728720   0.0000000), wk =   0.0004340
        k(   33) = (   0.0000000   0.3849002   0.0000000), wk =   0.0004340
        k(   34) = (   0.0000000   0.3969283   0.0000000), wk =   0.0004340
        k(   35) = (   0.0000000   0.4089564   0.0000000), wk =   0.0004340
        k(   36) = (   0.0000000   0.4209846   0.0000000), wk =   0.0004340
        k(   37) = (   0.0000000   0.4330127   0.0000000), wk =   0.0004340
        k(   38) = (   0.0000000   0.4450408   0.0000000), wk =   0.0004340
        k(   39) = (   0.0000000   0.4570690   0.0000000), wk =   0.0004340
        k(   40) = (   0.0000000   0.4690971   0.0000000), wk =   0.0004340
        k(   41) = (   0.0000000   0.4811252   0.0000000), wk =   0.0004340
        k(   42) = (   0.0000000   0.4931534   0.0000000), wk =   0.0004340
        k(   43) = (   0.0000000   0.5051815   0.0000000), wk =   0.0004340
        k(   44) = (   0.0000000   0.5172096   0.0000000), wk =   0.0004340
        k(   45) = (   0.0000000   0.5292377   0.0000000), wk =   0.0004340
        k(   46) = (   0.0000000   0.5412659   0.0000000), wk =   0.0004340
        k(   47) = (   0.0000000   0.5532940   0.0000000), wk =   0.0004340
        k(   48) = (   0.0000000   0.5653221   0.0000000), wk =   0.0004340
        k(   49) = (   0.0000000  -0.5773503   0.0000000), wk =   0.0002170
        k(   50) = (   0.0104167   0.0180422   0.0000000), wk =   0.0008681
        k(   51) = (   0.0104167   0.0300703   0.0000000), wk =   0.0008681
        k(   52) = (   0.0104167   0.0420985   0.0000000), wk =   0.0008681
        k(   53) = (   0.0104167   0.0541266   0.0000000), wk =   0.0008681
        k(   54) = (   0.0104167   0.0661547   0.0000000), wk =   0.0008681
        k(   55) = (   0.0104167   0.0781828   0.0000000), wk =   0.0008681
        k(   56) = (   0.0104167   0.0902110   0.0000000), wk =   0.0008681
        k(   57) = (   0.0104167   0.1022391   0.0000000), wk =   0.0008681
        k(   58) = (   0.0104167   0.1142672   0.0000000), wk =   0.0008681
        k(   59) = (   0.0104167   0.1262954   0.0000000), wk =   0.0008681
        k(   60) = (   0.0104167   0.1383235   0.0000000), wk =   0.0008681
        k(   61) = (   0.0104167   0.1503516   0.0000000), wk =   0.0008681
        k(   62) = (   0.0104167   0.1623798   0.0000000), wk =   0.0008681
        k(   63) = (   0.0104167   0.1744079   0.0000000), wk =   0.0008681
        k(   64) = (   0.0104167   0.1864360   0.0000000), wk =   0.0008681
        k(   65) = (   0.0104167   0.1984642   0.0000000), wk =   0.0008681
        k(   66) = (   0.0104167   0.2104923   0.0000000), wk =   0.0008681
        k(   67) = (   0.0104167   0.2225204   0.0000000), wk =   0.0008681
        k(   68) = (   0.0104167   0.2345485   0.0000000), wk =   0.0008681
        k(   69) = (   0.0104167   0.2465767   0.0000000), wk =   0.0008681
        k(   70) = (   0.0104167   0.2586048   0.0000000), wk =   0.0008681
        k(   71) = (   0.0104167   0.2706329   0.0000000), wk =   0.0008681
        k(   72) = (   0.0104167   0.2826611   0.0000000), wk =   0.0008681
        k(   73) = (   0.0104167   0.2946892   0.0000000), wk =   0.0008681
        k(   74) = (   0.0104167   0.3067173   0.0000000), wk =   0.0008681
        k(   75) = (   0.0104167   0.3187455   0.0000000), wk =   0.0008681
        k(   76) = (   0.0104167   0.3307736   0.0000000), wk =   0.0008681
        k(   77) = (   0.0104167   0.3428017   0.0000000), wk =   0.0008681
        k(   78) = (   0.0104167   0.3548299   0.0000000), wk =   0.0008681
        k(   79) = (   0.0104167   0.3668580   0.0000000), wk =   0.0008681
        k(   80) = (   0.0104167   0.3788861   0.0000000), wk =   0.0008681
        k(   81) = (   0.0104167   0.3909142   0.0000000), wk =   0.0008681
        k(   82) = (   0.0104167   0.4029424   0.0000000), wk =   0.0008681
        k(   83) = (   0.0104167   0.4149705   0.0000000), wk =   0.0008681
        k(   84) = (   0.0104167   0.4269986   0.0000000), wk =   0.0008681
        k(   85) = (   0.0104167   0.4390268   0.0000000), wk =   0.0008681
        k(   86) = (   0.0104167   0.4510549   0.0000000), wk =   0.0008681
        k(   87) = (   0.0104167   0.4630830   0.0000000), wk =   0.0008681
        k(   88) = (   0.0104167   0.4751112   0.0000000), wk =   0.0008681
        k(   89) = (   0.0104167   0.4871393   0.0000000), wk =   0.0008681
        k(   90) = (   0.0104167   0.4991674   0.0000000), wk =   0.0008681
        k(   91) = (   0.0104167   0.5111956   0.0000000), wk =   0.0008681
        k(   92) = (   0.0104167   0.5232237   0.0000000), wk =   0.0008681
        k(   93) = (   0.0104167   0.5352518   0.0000000), wk =   0.0008681
        k(   94) = (   0.0104167   0.5472799   0.0000000), wk =   0.0008681
        k(   95) = (   0.0104167   0.5593081   0.0000000), wk =   0.0008681
        k(   96) = (   0.0104167   0.5713362   0.0000000), wk =   0.0008681
        k(   97) = (   0.0208333   0.0360844   0.0000000), wk =   0.0008681
        k(   98) = (   0.0208333   0.0481125   0.0000000), wk =   0.0008681
        k(   99) = (   0.0208333   0.0601407   0.0000000), wk =   0.0008681
        k(  100) = (   0.0208333   0.0721688   0.0000000), wk =   0.0008681
        k(  101) = (   0.0208333   0.0841969   0.0000000), wk =   0.0008681
        k(  102) = (   0.0208333   0.0962250   0.0000000), wk =   0.0008681
        k(  103) = (   0.0208333   0.1082532   0.0000000), wk =   0.0008681
        k(  104) = (   0.0208333   0.1202813   0.0000000), wk =   0.0008681
        k(  105) = (   0.0208333   0.1323094   0.0000000), wk =   0.0008681
        k(  106) = (   0.0208333   0.1443376   0.0000000), wk =   0.0008681
        k(  107) = (   0.0208333   0.1563657   0.0000000), wk =   0.0008681
        k(  108) = (   0.0208333   0.1683938   0.0000000), wk =   0.0008681
        k(  109) = (   0.0208333   0.1804220   0.0000000), wk =   0.0008681
        k(  110) = (   0.0208333   0.1924501   0.0000000), wk =   0.0008681
        k(  111) = (   0.0208333   0.2044782   0.0000000), wk =   0.0008681
        k(  112) = (   0.0208333   0.2165064   0.0000000), wk =   0.0008681
        k(  113) = (   0.0208333   0.2285345   0.0000000), wk =   0.0008681
        k(  114) = (   0.0208333   0.2405626   0.0000000), wk =   0.0008681
        k(  115) = (   0.0208333   0.2525907   0.0000000), wk =   0.0008681
        k(  116) = (   0.0208333   0.2646189   0.0000000), wk =   0.0008681
        k(  117) = (   0.0208333   0.2766470   0.0000000), wk =   0.0008681
        k(  118) = (   0.0208333   0.2886751   0.0000000), wk =   0.0008681
        k(  119) = (   0.0208333   0.3007033   0.0000000), wk =   0.0008681
        k(  120) = (   0.0208333   0.3127314   0.0000000), wk =   0.0008681
        k(  121) = (   0.0208333   0.3247595   0.0000000), wk =   0.0008681
        k(  122) = (   0.0208333   0.3367877   0.0000000), wk =   0.0008681
        k(  123) = (   0.0208333   0.3488158   0.0000000), wk =   0.0008681
        k(  124) = (   0.0208333   0.3608439   0.0000000), wk =   0.0008681
        k(  125) = (   0.0208333   0.3728720   0.0000000), wk =   0.0008681
        k(  126) = (   0.0208333   0.3849002   0.0000000), wk =   0.0008681
        k(  127) = (   0.0208333   0.3969283   0.0000000), wk =   0.0008681
        k(  128) = (   0.0208333   0.4089564   0.0000000), wk =   0.0008681
        k(  129) = (   0.0208333   0.4209846   0.0000000), wk =   0.0008681
        k(  130) = (   0.0208333   0.4330127   0.0000000), wk =   0.0008681
        k(  131) = (   0.0208333   0.4450408   0.0000000), wk =   0.0008681
        k(  132) = (   0.0208333   0.4570690   0.0000000), wk =   0.0008681
        k(  133) = (   0.0208333   0.4690971   0.0000000), wk =   0.0008681
        k(  134) = (   0.0208333   0.4811252   0.0000000), wk =   0.0008681
        k(  135) = (   0.0208333   0.4931534   0.0000000), wk =   0.0008681
        k(  136) = (   0.0208333   0.5051815   0.0000000), wk =   0.0008681
        k(  137) = (   0.0208333   0.5172096   0.0000000), wk =   0.0008681
        k(  138) = (   0.0208333   0.5292377   0.0000000), wk =   0.0008681
        k(  139) = (   0.0208333   0.5412659   0.0000000), wk =   0.0008681
        k(  140) = (   0.0208333   0.5532940   0.0000000), wk =   0.0008681
        k(  141) = (   0.0208333   0.5653221   0.0000000), wk =   0.0008681
        k(  142) = (   0.0208333   0.5773503   0.0000000), wk =   0.0004340
        k(  143) = (   0.0312500   0.0541266   0.0000000), wk =   0.0008681
        k(  144) = (   0.0312500   0.0661547   0.0000000), wk =   0.0008681
        k(  145) = (   0.0312500   0.0781828   0.0000000), wk =   0.0008681
        k(  146) = (   0.0312500   0.0902110   0.0000000), wk =   0.0008681
        k(  147) = (   0.0312500   0.1022391   0.0000000), wk =   0.0008681
        k(  148) = (   0.0312500   0.1142672   0.0000000), wk =   0.0008681
        k(  149) = (   0.0312500   0.1262954   0.0000000), wk =   0.0008681
        k(  150) = (   0.0312500   0.1383235   0.0000000), wk =   0.0008681
        k(  151) = (   0.0312500   0.1503516   0.0000000), wk =   0.0008681
        k(  152) = (   0.0312500   0.1623798   0.0000000), wk =   0.0008681
        k(  153) = (   0.0312500   0.1744079   0.0000000), wk =   0.0008681
        k(  154) = (   0.0312500   0.1864360   0.0000000), wk =   0.0008681
        k(  155) = (   0.0312500   0.1984642   0.0000000), wk =   0.0008681
        k(  156) = (   0.0312500   0.2104923   0.0000000), wk =   0.0008681
        k(  157) = (   0.0312500   0.2225204   0.0000000), wk =   0.0008681
        k(  158) = (   0.0312500   0.2345485   0.0000000), wk =   0.0008681
        k(  159) = (   0.0312500   0.2465767   0.0000000), wk =   0.0008681
        k(  160) = (   0.0312500   0.2586048   0.0000000), wk =   0.0008681
        k(  161) = (   0.0312500   0.2706329   0.0000000), wk =   0.0008681
        k(  162) = (   0.0312500   0.2826611   0.0000000), wk =   0.0008681
        k(  163) = (   0.0312500   0.2946892   0.0000000), wk =   0.0008681
        k(  164) = (   0.0312500   0.3067173   0.0000000), wk =   0.0008681
        k(  165) = (   0.0312500   0.3187455   0.0000000), wk =   0.0008681
        k(  166) = (   0.0312500   0.3307736   0.0000000), wk =   0.0008681
        k(  167) = (   0.0312500   0.3428017   0.0000000), wk =   0.0008681
        k(  168) = (   0.0312500   0.3548299   0.0000000), wk =   0.0008681
        k(  169) = (   0.0312500   0.3668580   0.0000000), wk =   0.0008681
        k(  170) = (   0.0312500   0.3788861   0.0000000), wk =   0.0008681
        k(  171) = (   0.0312500   0.3909142   0.0000000), wk =   0.0008681
        k(  172) = (   0.0312500   0.4029424   0.0000000), wk =   0.0008681
        k(  173) = (   0.0312500   0.4149705   0.0000000), wk =   0.0008681
        k(  174) = (   0.0312500   0.4269986   0.0000000), wk =   0.0008681
        k(  175) = (   0.0312500   0.4390268   0.0000000), wk =   0.0008681
        k(  176) = (   0.0312500   0.4510549   0.0000000), wk =   0.0008681
        k(  177) = (   0.0312500   0.4630830   0.0000000), wk =   0.0008681
        k(  178) = (   0.0312500   0.4751112   0.0000000), wk =   0.0008681
        k(  179) = (   0.0312500   0.4871393   0.0000000), wk =   0.0008681
        k(  180) = (   0.0312500   0.4991674   0.0000000), wk =   0.0008681
        k(  181) = (   0.0312500   0.5111956   0.0000000), wk =   0.0008681
        k(  182) = (   0.0312500   0.5232237   0.0000000), wk =   0.0008681
        k(  183) = (   0.0312500   0.5352518   0.0000000), wk =   0.0008681
        k(  184) = (   0.0312500   0.5472799   0.0000000), wk =   0.0008681
        k(  185) = (   0.0312500   0.5593081   0.0000000), wk =   0.0008681
        k(  186) = (   0.0312500   0.5713362   0.0000000), wk =   0.0008681
        k(  187) = (   0.0416667   0.0721688   0.0000000), wk =   0.0008681
        k(  188) = (   0.0416667   0.0841969   0.0000000), wk =   0.0008681
        k(  189) = (   0.0416667   0.0962250   0.0000000), wk =   0.0008681
        k(  190) = (   0.0416667   0.1082532   0.0000000), wk =   0.0008681
        k(  191) = (   0.0416667   0.1202813   0.0000000), wk =   0.0008681
        k(  192) = (   0.0416667   0.1323094   0.0000000), wk =   0.0008681
        k(  193) = (   0.0416667   0.1443376   0.0000000), wk =   0.0008681
        k(  194) = (   0.0416667   0.1563657   0.0000000), wk =   0.0008681
        k(  195) = (   0.0416667   0.1683938   0.0000000), wk =   0.0008681
        k(  196) = (   0.0416667   0.1804220   0.0000000), wk =   0.0008681
        k(  197) = (   0.0416667   0.1924501   0.0000000), wk =   0.0008681
        k(  198) = (   0.0416667   0.2044782   0.0000000), wk =   0.0008681
        k(  199) = (   0.0416667   0.2165064   0.0000000), wk =   0.0008681
        k(  200) = (   0.0416667   0.2285345   0.0000000), wk =   0.0008681
        k(  201) = (   0.0416667   0.2405626   0.0000000), wk =   0.0008681
        k(  202) = (   0.0416667   0.2525907   0.0000000), wk =   0.0008681
        k(  203) = (   0.0416667   0.2646189   0.0000000), wk =   0.0008681
        k(  204) = (   0.0416667   0.2766470   0.0000000), wk =   0.0008681
        k(  205) = (   0.0416667   0.2886751   0.0000000), wk =   0.0008681
        k(  206) = (   0.0416667   0.3007033   0.0000000), wk =   0.0008681
        k(  207) = (   0.0416667   0.3127314   0.0000000), wk =   0.0008681
        k(  208) = (   0.0416667   0.3247595   0.0000000), wk =   0.0008681
        k(  209) = (   0.0416667   0.3367877   0.0000000), wk =   0.0008681
        k(  210) = (   0.0416667   0.3488158   0.0000000), wk =   0.0008681
        k(  211) = (   0.0416667   0.3608439   0.0000000), wk =   0.0008681
        k(  212) = (   0.0416667   0.3728720   0.0000000), wk =   0.0008681
        k(  213) = (   0.0416667   0.3849002   0.0000000), wk =   0.0008681
        k(  214) = (   0.0416667   0.3969283   0.0000000), wk =   0.0008681
        k(  215) = (   0.0416667   0.4089564   0.0000000), wk =   0.0008681
        k(  216) = (   0.0416667   0.4209846   0.0000000), wk =   0.0008681
        k(  217) = (   0.0416667   0.4330127   0.0000000), wk =   0.0008681
        k(  218) = (   0.0416667   0.4450408   0.0000000), wk =   0.0008681
        k(  219) = (   0.0416667   0.4570690   0.0000000), wk =   0.0008681
        k(  220) = (   0.0416667   0.4690971   0.0000000), wk =   0.0008681
        k(  221) = (   0.0416667   0.4811252   0.0000000), wk =   0.0008681
        k(  222) = (   0.0416667   0.4931534   0.0000000), wk =   0.0008681
        k(  223) = (   0.0416667   0.5051815   0.0000000), wk =   0.0008681
        k(  224) = (   0.0416667   0.5172096   0.0000000), wk =   0.0008681
        k(  225) = (   0.0416667   0.5292377   0.0000000), wk =   0.0008681
        k(  226) = (   0.0416667   0.5412659   0.0000000), wk =   0.0008681
        k(  227) = (   0.0416667   0.5532940   0.0000000), wk =   0.0008681
        k(  228) = (   0.0416667   0.5653221   0.0000000), wk =   0.0008681
        k(  229) = (   0.0416667   0.5773503   0.0000000), wk =   0.0004340
        k(  230) = (   0.0520833   0.0902110   0.0000000), wk =   0.0008681
        k(  231) = (   0.0520833   0.1022391   0.0000000), wk =   0.0008681
        k(  232) = (   0.0520833   0.1142672   0.0000000), wk =   0.0008681
        k(  233) = (   0.0520833   0.1262954   0.0000000), wk =   0.0008681
        k(  234) = (   0.0520833   0.1383235   0.0000000), wk =   0.0008681
        k(  235) = (   0.0520833   0.1503516   0.0000000), wk =   0.0008681
        k(  236) = (   0.0520833   0.1623798   0.0000000), wk =   0.0008681
        k(  237) = (   0.0520833   0.1744079   0.0000000), wk =   0.0008681
        k(  238) = (   0.0520833   0.1864360   0.0000000), wk =   0.0008681
        k(  239) = (   0.0520833   0.1984642   0.0000000), wk =   0.0008681
        k(  240) = (   0.0520833   0.2104923   0.0000000), wk =   0.0008681
        k(  241) = (   0.0520833   0.2225204   0.0000000), wk =   0.0008681
        k(  242) = (   0.0520833   0.2345485   0.0000000), wk =   0.0008681
        k(  243) = (   0.0520833   0.2465767   0.0000000), wk =   0.0008681
        k(  244) = (   0.0520833   0.2586048   0.0000000), wk =   0.0008681
        k(  245) = (   0.0520833   0.2706329   0.0000000), wk =   0.0008681
        k(  246) = (   0.0520833   0.2826611   0.0000000), wk =   0.0008681
        k(  247) = (   0.0520833   0.2946892   0.0000000), wk =   0.0008681
        k(  248) = (   0.0520833   0.3067173   0.0000000), wk =   0.0008681
        k(  249) = (   0.0520833   0.3187455   0.0000000), wk =   0.0008681
        k(  250) = (   0.0520833   0.3307736   0.0000000), wk =   0.0008681
        k(  251) = (   0.0520833   0.3428017   0.0000000), wk =   0.0008681
        k(  252) = (   0.0520833   0.3548299   0.0000000), wk =   0.0008681
        k(  253) = (   0.0520833   0.3668580   0.0000000), wk =   0.0008681
        k(  254) = (   0.0520833   0.3788861   0.0000000), wk =   0.0008681
        k(  255) = (   0.0520833   0.3909142   0.0000000), wk =   0.0008681
        k(  256) = (   0.0520833   0.4029424   0.0000000), wk =   0.0008681
        k(  257) = (   0.0520833   0.4149705   0.0000000), wk =   0.0008681
        k(  258) = (   0.0520833   0.4269986   0.0000000), wk =   0.0008681
        k(  259) = (   0.0520833   0.4390268   0.0000000), wk =   0.0008681
        k(  260) = (   0.0520833   0.4510549   0.0000000), wk =   0.0008681
        k(  261) = (   0.0520833   0.4630830   0.0000000), wk =   0.0008681
        k(  262) = (   0.0520833   0.4751112   0.0000000), wk =   0.0008681
        k(  263) = (   0.0520833   0.4871393   0.0000000), wk =   0.0008681
        k(  264) = (   0.0520833   0.4991674   0.0000000), wk =   0.0008681
        k(  265) = (   0.0520833   0.5111956   0.0000000), wk =   0.0008681
        k(  266) = (   0.0520833   0.5232237   0.0000000), wk =   0.0008681
        k(  267) = (   0.0520833   0.5352518   0.0000000), wk =   0.0008681
        k(  268) = (   0.0520833   0.5472799   0.0000000), wk =   0.0008681
        k(  269) = (   0.0520833   0.5593081   0.0000000), wk =   0.0008681
        k(  270) = (   0.0520833   0.5713362   0.0000000), wk =   0.0008681
        k(  271) = (   0.0625000   0.1082532   0.0000000), wk =   0.0008681
        k(  272) = (   0.0625000   0.1202813   0.0000000), wk =   0.0008681
        k(  273) = (   0.0625000   0.1323094   0.0000000), wk =   0.0008681
        k(  274) = (   0.0625000   0.1443376   0.0000000), wk =   0.0008681
        k(  275) = (   0.0625000   0.1563657   0.0000000), wk =   0.0008681
        k(  276) = (   0.0625000   0.1683938   0.0000000), wk =   0.0008681
        k(  277) = (   0.0625000   0.1804220   0.0000000), wk =   0.0008681
        k(  278) = (   0.0625000   0.1924501   0.0000000), wk =   0.0008681
        k(  279) = (   0.0625000   0.2044782   0.0000000), wk =   0.0008681
        k(  280) = (   0.0625000   0.2165064   0.0000000), wk =   0.0008681
        k(  281) = (   0.0625000   0.2285345   0.0000000), wk =   0.0008681
        k(  282) = (   0.0625000   0.2405626   0.0000000), wk =   0.0008681
        k(  283) = (   0.0625000   0.2525907   0.0000000), wk =   0.0008681
        k(  284) = (   0.0625000   0.2646189   0.0000000), wk =   0.0008681
        k(  285) = (   0.0625000   0.2766470   0.0000000), wk =   0.0008681
        k(  286) = (   0.0625000   0.2886751   0.0000000), wk =   0.0008681
        k(  287) = (   0.0625000   0.3007033   0.0000000), wk =   0.0008681
        k(  288) = (   0.0625000   0.3127314   0.0000000), wk =   0.0008681
        k(  289) = (   0.0625000   0.3247595   0.0000000), wk =   0.0008681
        k(  290) = (   0.0625000   0.3367877   0.0000000), wk =   0.0008681
        k(  291) = (   0.0625000   0.3488158   0.0000000), wk =   0.0008681
        k(  292) = (   0.0625000   0.3608439   0.0000000), wk =   0.0008681
        k(  293) = (   0.0625000   0.3728720   0.0000000), wk =   0.0008681
        k(  294) = (   0.0625000   0.3849002   0.0000000), wk =   0.0008681
        k(  295) = (   0.0625000   0.3969283   0.0000000), wk =   0.0008681
        k(  296) = (   0.0625000   0.4089564   0.0000000), wk =   0.0008681
        k(  297) = (   0.0625000   0.4209846   0.0000000), wk =   0.0008681
        k(  298) = (   0.0625000   0.4330127   0.0000000), wk =   0.0008681
        k(  299) = (   0.0625000   0.4450408   0.0000000), wk =   0.0008681
        k(  300) = (   0.0625000   0.4570690   0.0000000), wk =   0.0008681
        k(  301) = (   0.0625000   0.4690971   0.0000000), wk =   0.0008681
        k(  302) = (   0.0625000   0.4811252   0.0000000), wk =   0.0008681
        k(  303) = (   0.0625000   0.4931534   0.0000000), wk =   0.0008681
        k(  304) = (   0.0625000   0.5051815   0.0000000), wk =   0.0008681
        k(  305) = (   0.0625000   0.5172096   0.0000000), wk =   0.0008681
        k(  306) = (   0.0625000   0.5292377   0.0000000), wk =   0.0008681
        k(  307) = (   0.0625000   0.5412659   0.0000000), wk =   0.0008681
        k(  308) = (   0.0625000   0.5532940   0.0000000), wk =   0.0008681
        k(  309) = (   0.0625000   0.5653221   0.0000000), wk =   0.0008681
        k(  310) = (   0.0625000   0.5773503   0.0000000), wk =   0.0004340
        k(  311) = (   0.0729167   0.1262954   0.0000000), wk =   0.0008681
        k(  312) = (   0.0729167   0.1383235   0.0000000), wk =   0.0008681
        k(  313) = (   0.0729167   0.1503516   0.0000000), wk =   0.0008681
        k(  314) = (   0.0729167   0.1623798   0.0000000), wk =   0.0008681
        k(  315) = (   0.0729167   0.1744079   0.0000000), wk =   0.0008681
        k(  316) = (   0.0729167   0.1864360   0.0000000), wk =   0.0008681
        k(  317) = (   0.0729167   0.1984642   0.0000000), wk =   0.0008681
        k(  318) = (   0.0729167   0.2104923   0.0000000), wk =   0.0008681
        k(  319) = (   0.0729167   0.2225204   0.0000000), wk =   0.0008681
        k(  320) = (   0.0729167   0.2345485   0.0000000), wk =   0.0008681
        k(  321) = (   0.0729167   0.2465767   0.0000000), wk =   0.0008681
        k(  322) = (   0.0729167   0.2586048   0.0000000), wk =   0.0008681
        k(  323) = (   0.0729167   0.2706329   0.0000000), wk =   0.0008681
        k(  324) = (   0.0729167   0.2826611   0.0000000), wk =   0.0008681
        k(  325) = (   0.0729167   0.2946892   0.0000000), wk =   0.0008681
        k(  326) = (   0.0729167   0.3067173   0.0000000), wk =   0.0008681
        k(  327) = (   0.0729167   0.3187455   0.0000000), wk =   0.0008681
        k(  328) = (   0.0729167   0.3307736   0.0000000), wk =   0.0008681
        k(  329) = (   0.0729167   0.3428017   0.0000000), wk =   0.0008681
        k(  330) = (   0.0729167   0.3548299   0.0000000), wk =   0.0008681
        k(  331) = (   0.0729167   0.3668580   0.0000000), wk =   0.0008681
        k(  332) = (   0.0729167   0.3788861   0.0000000), wk =   0.0008681
        k(  333) = (   0.0729167   0.3909142   0.0000000), wk =   0.0008681
        k(  334) = (   0.0729167   0.4029424   0.0000000), wk =   0.0008681
        k(  335) = (   0.0729167   0.4149705   0.0000000), wk =   0.0008681
        k(  336) = (   0.0729167   0.4269986   0.0000000), wk =   0.0008681
        k(  337) = (   0.0729167   0.4390268   0.0000000), wk =   0.0008681
        k(  338) = (   0.0729167   0.4510549   0.0000000), wk =   0.0008681
        k(  339) = (   0.0729167   0.4630830   0.0000000), wk =   0.0008681
        k(  340) = (   0.0729167   0.4751112   0.0000000), wk =   0.0008681
        k(  341) = (   0.0729167   0.4871393   0.0000000), wk =   0.0008681
        k(  342) = (   0.0729167   0.4991674   0.0000000), wk =   0.0008681
        k(  343) = (   0.0729167   0.5111956   0.0000000), wk =   0.0008681
        k(  344) = (   0.0729167   0.5232237   0.0000000), wk =   0.0008681
        k(  345) = (   0.0729167   0.5352518   0.0000000), wk =   0.0008681
        k(  346) = (   0.0729167   0.5472799   0.0000000), wk =   0.0008681
        k(  347) = (   0.0729167   0.5593081   0.0000000), wk =   0.0008681
        k(  348) = (   0.0729167   0.5713362   0.0000000), wk =   0.0008681
        k(  349) = (   0.0833333   0.1443376   0.0000000), wk =   0.0008681
        k(  350) = (   0.0833333   0.1563657   0.0000000), wk =   0.0008681
        k(  351) = (   0.0833333   0.1683938   0.0000000), wk =   0.0008681
        k(  352) = (   0.0833333   0.1804220   0.0000000), wk =   0.0008681
        k(  353) = (   0.0833333   0.1924501   0.0000000), wk =   0.0008681
        k(  354) = (   0.0833333   0.2044782   0.0000000), wk =   0.0008681
        k(  355) = (   0.0833333   0.2165064   0.0000000), wk =   0.0008681
        k(  356) = (   0.0833333   0.2285345   0.0000000), wk =   0.0008681
        k(  357) = (   0.0833333   0.2405626   0.0000000), wk =   0.0008681
        k(  358) = (   0.0833333   0.2525907   0.0000000), wk =   0.0008681
        k(  359) = (   0.0833333   0.2646189   0.0000000), wk =   0.0008681
        k(  360) = (   0.0833333   0.2766470   0.0000000), wk =   0.0008681
        k(  361) = (   0.0833333   0.2886751   0.0000000), wk =   0.0008681
        k(  362) = (   0.0833333   0.3007033   0.0000000), wk =   0.0008681
        k(  363) = (   0.0833333   0.3127314   0.0000000), wk =   0.0008681
        k(  364) = (   0.0833333   0.3247595   0.0000000), wk =   0.0008681
        k(  365) = (   0.0833333   0.3367877   0.0000000), wk =   0.0008681
        k(  366) = (   0.0833333   0.3488158   0.0000000), wk =   0.0008681
        k(  367) = (   0.0833333   0.3608439   0.0000000), wk =   0.0008681
        k(  368) = (   0.0833333   0.3728720   0.0000000), wk =   0.0008681
        k(  369) = (   0.0833333   0.3849002   0.0000000), wk =   0.0008681
        k(  370) = (   0.0833333   0.3969283   0.0000000), wk =   0.0008681
        k(  371) = (   0.0833333   0.4089564   0.0000000), wk =   0.0008681
        k(  372) = (   0.0833333   0.4209846   0.0000000), wk =   0.0008681
        k(  373) = (   0.0833333   0.4330127   0.0000000), wk =   0.0008681
        k(  374) = (   0.0833333   0.4450408   0.0000000), wk =   0.0008681
        k(  375) = (   0.0833333   0.4570690   0.0000000), wk =   0.0008681
        k(  376) = (   0.0833333   0.4690971   0.0000000), wk =   0.0008681
        k(  377) = (   0.0833333   0.4811252   0.0000000), wk =   0.0008681
        k(  378) = (   0.0833333   0.4931534   0.0000000), wk =   0.0008681
        k(  379) = (   0.0833333   0.5051815   0.0000000), wk =   0.0008681
        k(  380) = (   0.0833333   0.5172096   0.0000000), wk =   0.0008681
        k(  381) = (   0.0833333   0.5292377   0.0000000), wk =   0.0008681
        k(  382) = (   0.0833333   0.5412659   0.0000000), wk =   0.0008681
        k(  383) = (   0.0833333   0.5532940   0.0000000), wk =   0.0008681
        k(  384) = (   0.0833333   0.5653221   0.0000000), wk =   0.0008681
        k(  385) = (   0.0833333   0.5773503   0.0000000), wk =   0.0004340
        k(  386) = (   0.0937500   0.1623798   0.0000000), wk =   0.0008681
        k(  387) = (   0.0937500   0.1744079   0.0000000), wk =   0.0008681
        k(  388) = (   0.0937500   0.1864360   0.0000000), wk =   0.0008681
        k(  389) = (   0.0937500   0.1984642   0.0000000), wk =   0.0008681
        k(  390) = (   0.0937500   0.2104923   0.0000000), wk =   0.0008681
        k(  391) = (   0.0937500   0.2225204   0.0000000), wk =   0.0008681
        k(  392) = (   0.0937500   0.2345485   0.0000000), wk =   0.0008681
        k(  393) = (   0.0937500   0.2465767   0.0000000), wk =   0.0008681
        k(  394) = (   0.0937500   0.2586048   0.0000000), wk =   0.0008681
        k(  395) = (   0.0937500   0.2706329   0.0000000), wk =   0.0008681
        k(  396) = (   0.0937500   0.2826611   0.0000000), wk =   0.0008681
        k(  397) = (   0.0937500   0.2946892   0.0000000), wk =   0.0008681
        k(  398) = (   0.0937500   0.3067173   0.0000000), wk =   0.0008681
        k(  399) = (   0.0937500   0.3187455   0.0000000), wk =   0.0008681
        k(  400) = (   0.0937500   0.3307736   0.0000000), wk =   0.0008681
        k(  401) = (   0.0937500   0.3428017   0.0000000), wk =   0.0008681
        k(  402) = (   0.0937500   0.3548299   0.0000000), wk =   0.0008681
        k(  403) = (   0.0937500   0.3668580   0.0000000), wk =   0.0008681
        k(  404) = (   0.0937500   0.3788861   0.0000000), wk =   0.0008681
        k(  405) = (   0.0937500   0.3909142   0.0000000), wk =   0.0008681
        k(  406) = (   0.0937500   0.4029424   0.0000000), wk =   0.0008681
        k(  407) = (   0.0937500   0.4149705   0.0000000), wk =   0.0008681
        k(  408) = (   0.0937500   0.4269986   0.0000000), wk =   0.0008681
        k(  409) = (   0.0937500   0.4390268   0.0000000), wk =   0.0008681
        k(  410) = (   0.0937500   0.4510549   0.0000000), wk =   0.0008681
        k(  411) = (   0.0937500   0.4630830   0.0000000), wk =   0.0008681
        k(  412) = (   0.0937500   0.4751112   0.0000000), wk =   0.0008681
        k(  413) = (   0.0937500   0.4871393   0.0000000), wk =   0.0008681
        k(  414) = (   0.0937500   0.4991674   0.0000000), wk =   0.0008681
        k(  415) = (   0.0937500   0.5111956   0.0000000), wk =   0.0008681
        k(  416) = (   0.0937500   0.5232237   0.0000000), wk =   0.0008681
        k(  417) = (   0.0937500   0.5352518   0.0000000), wk =   0.0008681
        k(  418) = (   0.0937500   0.5472799   0.0000000), wk =   0.0008681
        k(  419) = (   0.0937500   0.5593081   0.0000000), wk =   0.0008681
        k(  420) = (   0.0937500   0.5713362   0.0000000), wk =   0.0008681
        k(  421) = (   0.1041667   0.1804220   0.0000000), wk =   0.0008681
        k(  422) = (   0.1041667   0.1924501   0.0000000), wk =   0.0008681
        k(  423) = (   0.1041667   0.2044782   0.0000000), wk =   0.0008681
        k(  424) = (   0.1041667   0.2165064   0.0000000), wk =   0.0008681
        k(  425) = (   0.1041667   0.2285345   0.0000000), wk =   0.0008681
        k(  426) = (   0.1041667   0.2405626   0.0000000), wk =   0.0008681
        k(  427) = (   0.1041667   0.2525907   0.0000000), wk =   0.0008681
        k(  428) = (   0.1041667   0.2646189   0.0000000), wk =   0.0008681
        k(  429) = (   0.1041667   0.2766470   0.0000000), wk =   0.0008681
        k(  430) = (   0.1041667   0.2886751   0.0000000), wk =   0.0008681
        k(  431) = (   0.1041667   0.3007033   0.0000000), wk =   0.0008681
        k(  432) = (   0.1041667   0.3127314   0.0000000), wk =   0.0008681
        k(  433) = (   0.1041667   0.3247595   0.0000000), wk =   0.0008681
        k(  434) = (   0.1041667   0.3367877   0.0000000), wk =   0.0008681
        k(  435) = (   0.1041667   0.3488158   0.0000000), wk =   0.0008681
        k(  436) = (   0.1041667   0.3608439   0.0000000), wk =   0.0008681
        k(  437) = (   0.1041667   0.3728720   0.0000000), wk =   0.0008681
        k(  438) = (   0.1041667   0.3849002   0.0000000), wk =   0.0008681
        k(  439) = (   0.1041667   0.3969283   0.0000000), wk =   0.0008681
        k(  440) = (   0.1041667   0.4089564   0.0000000), wk =   0.0008681
        k(  441) = (   0.1041667   0.4209846   0.0000000), wk =   0.0008681
        k(  442) = (   0.1041667   0.4330127   0.0000000), wk =   0.0008681
        k(  443) = (   0.1041667   0.4450408   0.0000000), wk =   0.0008681
        k(  444) = (   0.1041667   0.4570690   0.0000000), wk =   0.0008681
        k(  445) = (   0.1041667   0.4690971   0.0000000), wk =   0.0008681
        k(  446) = (   0.1041667   0.4811252   0.0000000), wk =   0.0008681
        k(  447) = (   0.1041667   0.4931534   0.0000000), wk =   0.0008681
        k(  448) = (   0.1041667   0.5051815   0.0000000), wk =   0.0008681
        k(  449) = (   0.1041667   0.5172096   0.0000000), wk =   0.0008681
        k(  450) = (   0.1041667   0.5292377   0.0000000), wk =   0.0008681
        k(  451) = (   0.1041667   0.5412659   0.0000000), wk =   0.0008681
        k(  452) = (   0.1041667   0.5532940   0.0000000), wk =   0.0008681
        k(  453) = (   0.1041667   0.5653221   0.0000000), wk =   0.0008681
        k(  454) = (   0.1041667   0.5773503   0.0000000), wk =   0.0004340
        k(  455) = (   0.1145833   0.1984642   0.0000000), wk =   0.0008681
        k(  456) = (   0.1145833   0.2104923   0.0000000), wk =   0.0008681
        k(  457) = (   0.1145833   0.2225204   0.0000000), wk =   0.0008681
        k(  458) = (   0.1145833   0.2345485   0.0000000), wk =   0.0008681
        k(  459) = (   0.1145833   0.2465767   0.0000000), wk =   0.0008681
        k(  460) = (   0.1145833   0.2586048   0.0000000), wk =   0.0008681
        k(  461) = (   0.1145833   0.2706329   0.0000000), wk =   0.0008681
        k(  462) = (   0.1145833   0.2826611   0.0000000), wk =   0.0008681
        k(  463) = (   0.1145833   0.2946892   0.0000000), wk =   0.0008681
        k(  464) = (   0.1145833   0.3067173   0.0000000), wk =   0.0008681
        k(  465) = (   0.1145833   0.3187455   0.0000000), wk =   0.0008681
        k(  466) = (   0.1145833   0.3307736   0.0000000), wk =   0.0008681
        k(  467) = (   0.1145833   0.3428017   0.0000000), wk =   0.0008681
        k(  468) = (   0.1145833   0.3548299   0.0000000), wk =   0.0008681
        k(  469) = (   0.1145833   0.3668580   0.0000000), wk =   0.0008681
        k(  470) = (   0.1145833   0.3788861   0.0000000), wk =   0.0008681
        k(  471) = (   0.1145833   0.3909142   0.0000000), wk =   0.0008681
        k(  472) = (   0.1145833   0.4029424   0.0000000), wk =   0.0008681
        k(  473) = (   0.1145833   0.4149705   0.0000000), wk =   0.0008681
        k(  474) = (   0.1145833   0.4269986   0.0000000), wk =   0.0008681
        k(  475) = (   0.1145833   0.4390268   0.0000000), wk =   0.0008681
        k(  476) = (   0.1145833   0.4510549   0.0000000), wk =   0.0008681
        k(  477) = (   0.1145833   0.4630830   0.0000000), wk =   0.0008681
        k(  478) = (   0.1145833   0.4751112   0.0000000), wk =   0.0008681
        k(  479) = (   0.1145833   0.4871393   0.0000000), wk =   0.0008681
        k(  480) = (   0.1145833   0.4991674   0.0000000), wk =   0.0008681
        k(  481) = (   0.1145833   0.5111956   0.0000000), wk =   0.0008681
        k(  482) = (   0.1145833   0.5232237   0.0000000), wk =   0.0008681
        k(  483) = (   0.1145833   0.5352518   0.0000000), wk =   0.0008681
        k(  484) = (   0.1145833   0.5472799   0.0000000), wk =   0.0008681
        k(  485) = (   0.1145833   0.5593081   0.0000000), wk =   0.0008681
        k(  486) = (   0.1145833   0.5713362   0.0000000), wk =   0.0008681
        k(  487) = (   0.1250000   0.2165064   0.0000000), wk =   0.0008681
        k(  488) = (   0.1250000   0.2285345   0.0000000), wk =   0.0008681
        k(  489) = (   0.1250000   0.2405626   0.0000000), wk =   0.0008681
        k(  490) = (   0.1250000   0.2525907   0.0000000), wk =   0.0008681
        k(  491) = (   0.1250000   0.2646189   0.0000000), wk =   0.0008681
        k(  492) = (   0.1250000   0.2766470   0.0000000), wk =   0.0008681
        k(  493) = (   0.1250000   0.2886751   0.0000000), wk =   0.0008681
        k(  494) = (   0.1250000   0.3007033   0.0000000), wk =   0.0008681
        k(  495) = (   0.1250000   0.3127314   0.0000000), wk =   0.0008681
        k(  496) = (   0.1250000   0.3247595   0.0000000), wk =   0.0008681
        k(  497) = (   0.1250000   0.3367877   0.0000000), wk =   0.0008681
        k(  498) = (   0.1250000   0.3488158   0.0000000), wk =   0.0008681
        k(  499) = (   0.1250000   0.3608439   0.0000000), wk =   0.0008681
        k(  500) = (   0.1250000   0.3728720   0.0000000), wk =   0.0008681
        k(  501) = (   0.1250000   0.3849002   0.0000000), wk =   0.0008681
        k(  502) = (   0.1250000   0.3969283   0.0000000), wk =   0.0008681
        k(  503) = (   0.1250000   0.4089564   0.0000000), wk =   0.0008681
        k(  504) = (   0.1250000   0.4209846   0.0000000), wk =   0.0008681
        k(  505) = (   0.1250000   0.4330127   0.0000000), wk =   0.0008681
        k(  506) = (   0.1250000   0.4450408   0.0000000), wk =   0.0008681
        k(  507) = (   0.1250000   0.4570690   0.0000000), wk =   0.0008681
        k(  508) = (   0.1250000   0.4690971   0.0000000), wk =   0.0008681
        k(  509) = (   0.1250000   0.4811252   0.0000000), wk =   0.0008681
        k(  510) = (   0.1250000   0.4931534   0.0000000), wk =   0.0008681
        k(  511) = (   0.1250000   0.5051815   0.0000000), wk =   0.0008681
        k(  512) = (   0.1250000   0.5172096   0.0000000), wk =   0.0008681
        k(  513) = (   0.1250000   0.5292377   0.0000000), wk =   0.0008681
        k(  514) = (   0.1250000   0.5412659   0.0000000), wk =   0.0008681
        k(  515) = (   0.1250000   0.5532940   0.0000000), wk =   0.0008681
        k(  516) = (   0.1250000   0.5653221   0.0000000), wk =   0.0008681
        k(  517) = (   0.1250000   0.5773503   0.0000000), wk =   0.0004340
        k(  518) = (   0.1354167   0.2345485   0.0000000), wk =   0.0008681
        k(  519) = (   0.1354167   0.2465767   0.0000000), wk =   0.0008681
        k(  520) = (   0.1354167   0.2586048   0.0000000), wk =   0.0008681
        k(  521) = (   0.1354167   0.2706329   0.0000000), wk =   0.0008681
        k(  522) = (   0.1354167   0.2826611   0.0000000), wk =   0.0008681
        k(  523) = (   0.1354167   0.2946892   0.0000000), wk =   0.0008681
        k(  524) = (   0.1354167   0.3067173   0.0000000), wk =   0.0008681
        k(  525) = (   0.1354167   0.3187455   0.0000000), wk =   0.0008681
        k(  526) = (   0.1354167   0.3307736   0.0000000), wk =   0.0008681
        k(  527) = (   0.1354167   0.3428017   0.0000000), wk =   0.0008681
        k(  528) = (   0.1354167   0.3548299   0.0000000), wk =   0.0008681
        k(  529) = (   0.1354167   0.3668580   0.0000000), wk =   0.0008681
        k(  530) = (   0.1354167   0.3788861   0.0000000), wk =   0.0008681
        k(  531) = (   0.1354167   0.3909142   0.0000000), wk =   0.0008681
        k(  532) = (   0.1354167   0.4029424   0.0000000), wk =   0.0008681
        k(  533) = (   0.1354167   0.4149705   0.0000000), wk =   0.0008681
        k(  534) = (   0.1354167   0.4269986   0.0000000), wk =   0.0008681
        k(  535) = (   0.1354167   0.4390268   0.0000000), wk =   0.0008681
        k(  536) = (   0.1354167   0.4510549   0.0000000), wk =   0.0008681
        k(  537) = (   0.1354167   0.4630830   0.0000000), wk =   0.0008681
        k(  538) = (   0.1354167   0.4751112   0.0000000), wk =   0.0008681
        k(  539) = (   0.1354167   0.4871393   0.0000000), wk =   0.0008681
        k(  540) = (   0.1354167   0.4991674   0.0000000), wk =   0.0008681
        k(  541) = (   0.1354167   0.5111956   0.0000000), wk =   0.0008681
        k(  542) = (   0.1354167   0.5232237   0.0000000), wk =   0.0008681
        k(  543) = (   0.1354167   0.5352518   0.0000000), wk =   0.0008681
        k(  544) = (   0.1354167   0.5472799   0.0000000), wk =   0.0008681
        k(  545) = (   0.1354167   0.5593081   0.0000000), wk =   0.0008681
        k(  546) = (   0.1354167   0.5713362   0.0000000), wk =   0.0008681
        k(  547) = (   0.1458333   0.2525907   0.0000000), wk =   0.0008681
        k(  548) = (   0.1458333   0.2646189   0.0000000), wk =   0.0008681
        k(  549) = (   0.1458333   0.2766470   0.0000000), wk =   0.0008681
        k(  550) = (   0.1458333   0.2886751   0.0000000), wk =   0.0008681
        k(  551) = (   0.1458333   0.3007033   0.0000000), wk =   0.0008681
        k(  552) = (   0.1458333   0.3127314   0.0000000), wk =   0.0008681
        k(  553) = (   0.1458333   0.3247595   0.0000000), wk =   0.0008681
        k(  554) = (   0.1458333   0.3367877   0.0000000), wk =   0.0008681
        k(  555) = (   0.1458333   0.3488158   0.0000000), wk =   0.0008681
        k(  556) = (   0.1458333   0.3608439   0.0000000), wk =   0.0008681
        k(  557) = (   0.1458333   0.3728720   0.0000000), wk =   0.0008681
        k(  558) = (   0.1458333   0.3849002   0.0000000), wk =   0.0008681
        k(  559) = (   0.1458333   0.3969283   0.0000000), wk =   0.0008681
        k(  560) = (   0.1458333   0.4089564   0.0000000), wk =   0.0008681
        k(  561) = (   0.1458333   0.4209846   0.0000000), wk =   0.0008681
        k(  562) = (   0.1458333   0.4330127   0.0000000), wk =   0.0008681
        k(  563) = (   0.1458333   0.4450408   0.0000000), wk =   0.0008681
        k(  564) = (   0.1458333   0.4570690   0.0000000), wk =   0.0008681
        k(  565) = (   0.1458333   0.4690971   0.0000000), wk =   0.0008681
        k(  566) = (   0.1458333   0.4811252   0.0000000), wk =   0.0008681
        k(  567) = (   0.1458333   0.4931534   0.0000000), wk =   0.0008681
        k(  568) = (   0.1458333   0.5051815   0.0000000), wk =   0.0008681
        k(  569) = (   0.1458333   0.5172096   0.0000000), wk =   0.0008681
        k(  570) = (   0.1458333   0.5292377   0.0000000), wk =   0.0008681
        k(  571) = (   0.1458333   0.5412659   0.0000000), wk =   0.0008681
        k(  572) = (   0.1458333   0.5532940   0.0000000), wk =   0.0008681
        k(  573) = (   0.1458333   0.5653221   0.0000000), wk =   0.0008681
        k(  574) = (   0.1458333   0.5773503   0.0000000), wk =   0.0004340
        k(  575) = (   0.1562500   0.2706329   0.0000000), wk =   0.0008681
        k(  576) = (   0.1562500   0.2826611   0.0000000), wk =   0.0008681
        k(  577) = (   0.1562500   0.2946892   0.0000000), wk =   0.0008681
        k(  578) = (   0.1562500   0.3067173   0.0000000), wk =   0.0008681
        k(  579) = (   0.1562500   0.3187455   0.0000000), wk =   0.0008681
        k(  580) = (   0.1562500   0.3307736   0.0000000), wk =   0.0008681
        k(  581) = (   0.1562500   0.3428017   0.0000000), wk =   0.0008681
        k(  582) = (   0.1562500   0.3548299   0.0000000), wk =   0.0008681
        k(  583) = (   0.1562500   0.3668580   0.0000000), wk =   0.0008681
        k(  584) = (   0.1562500   0.3788861   0.0000000), wk =   0.0008681
        k(  585) = (   0.1562500   0.3909142   0.0000000), wk =   0.0008681
        k(  586) = (   0.1562500   0.4029424   0.0000000), wk =   0.0008681
        k(  587) = (   0.1562500   0.4149705   0.0000000), wk =   0.0008681
        k(  588) = (   0.1562500   0.4269986   0.0000000), wk =   0.0008681
        k(  589) = (   0.1562500   0.4390268   0.0000000), wk =   0.0008681
        k(  590) = (   0.1562500   0.4510549   0.0000000), wk =   0.0008681
        k(  591) = (   0.1562500   0.4630830   0.0000000), wk =   0.0008681
        k(  592) = (   0.1562500   0.4751112   0.0000000), wk =   0.0008681
        k(  593) = (   0.1562500   0.4871393   0.0000000), wk =   0.0008681
        k(  594) = (   0.1562500   0.4991674   0.0000000), wk =   0.0008681
        k(  595) = (   0.1562500   0.5111956   0.0000000), wk =   0.0008681
        k(  596) = (   0.1562500   0.5232237   0.0000000), wk =   0.0008681
        k(  597) = (   0.1562500   0.5352518   0.0000000), wk =   0.0008681
        k(  598) = (   0.1562500   0.5472799   0.0000000), wk =   0.0008681
        k(  599) = (   0.1562500   0.5593081   0.0000000), wk =   0.0008681
        k(  600) = (   0.1562500   0.5713362   0.0000000), wk =   0.0008681
        k(  601) = (   0.1666667   0.2886751   0.0000000), wk =   0.0008681
        k(  602) = (   0.1666667   0.3007033   0.0000000), wk =   0.0008681
        k(  603) = (   0.1666667   0.3127314   0.0000000), wk =   0.0008681
        k(  604) = (   0.1666667   0.3247595   0.0000000), wk =   0.0008681
        k(  605) = (   0.1666667   0.3367877   0.0000000), wk =   0.0008681
        k(  606) = (   0.1666667   0.3488158   0.0000000), wk =   0.0008681
        k(  607) = (   0.1666667   0.3608439   0.0000000), wk =   0.0008681
        k(  608) = (   0.1666667   0.3728720   0.0000000), wk =   0.0008681
        k(  609) = (   0.1666667   0.3849002   0.0000000), wk =   0.0008681
        k(  610) = (   0.1666667   0.3969283   0.0000000), wk =   0.0008681
        k(  611) = (   0.1666667   0.4089564   0.0000000), wk =   0.0008681
        k(  612) = (   0.1666667   0.4209846   0.0000000), wk =   0.0008681
        k(  613) = (   0.1666667   0.4330127   0.0000000), wk =   0.0008681
        k(  614) = (   0.1666667   0.4450408   0.0000000), wk =   0.0008681
        k(  615) = (   0.1666667   0.4570690   0.0000000), wk =   0.0008681
        k(  616) = (   0.1666667   0.4690971   0.0000000), wk =   0.0008681
        k(  617) = (   0.1666667   0.4811252   0.0000000), wk =   0.0008681
        k(  618) = (   0.1666667   0.4931534   0.0000000), wk =   0.0008681
        k(  619) = (   0.1666667   0.5051815   0.0000000), wk =   0.0008681
        k(  620) = (   0.1666667   0.5172096   0.0000000), wk =   0.0008681
        k(  621) = (   0.1666667   0.5292377   0.0000000), wk =   0.0008681
        k(  622) = (   0.1666667   0.5412659   0.0000000), wk =   0.0008681
        k(  623) = (   0.1666667   0.5532940   0.0000000), wk =   0.0008681
        k(  624) = (   0.1666667   0.5653221   0.0000000), wk =   0.0008681
        k(  625) = (   0.1666667   0.5773503   0.0000000), wk =   0.0004340
        k(  626) = (   0.1770833   0.3067173   0.0000000), wk =   0.0008681
        k(  627) = (   0.1770833   0.3187455   0.0000000), wk =   0.0008681
        k(  628) = (   0.1770833   0.3307736   0.0000000), wk =   0.0008681
        k(  629) = (   0.1770833   0.3428017   0.0000000), wk =   0.0008681
        k(  630) = (   0.1770833   0.3548299   0.0000000), wk =   0.0008681
        k(  631) = (   0.1770833   0.3668580   0.0000000), wk =   0.0008681
        k(  632) = (   0.1770833   0.3788861   0.0000000), wk =   0.0008681
        k(  633) = (   0.1770833   0.3909142   0.0000000), wk =   0.0008681
        k(  634) = (   0.1770833   0.4029424   0.0000000), wk =   0.0008681
        k(  635) = (   0.1770833   0.4149705   0.0000000), wk =   0.0008681
        k(  636) = (   0.1770833   0.4269986   0.0000000), wk =   0.0008681
        k(  637) = (   0.1770833   0.4390268   0.0000000), wk =   0.0008681
        k(  638) = (   0.1770833   0.4510549   0.0000000), wk =   0.0008681
        k(  639) = (   0.1770833   0.4630830   0.0000000), wk =   0.0008681
        k(  640) = (   0.1770833   0.4751112   0.0000000), wk =   0.0008681
        k(  641) = (   0.1770833   0.4871393   0.0000000), wk =   0.0008681
        k(  642) = (   0.1770833   0.4991674   0.0000000), wk =   0.0008681
        k(  643) = (   0.1770833   0.5111956   0.0000000), wk =   0.0008681
        k(  644) = (   0.1770833   0.5232237   0.0000000), wk =   0.0008681
        k(  645) = (   0.1770833   0.5352518   0.0000000), wk =   0.0008681
        k(  646) = (   0.1770833   0.5472799   0.0000000), wk =   0.0008681
        k(  647) = (   0.1770833   0.5593081   0.0000000), wk =   0.0008681
        k(  648) = (   0.1770833   0.5713362   0.0000000), wk =   0.0008681
        k(  649) = (   0.1875000   0.3247595   0.0000000), wk =   0.0008681
        k(  650) = (   0.1875000   0.3367877   0.0000000), wk =   0.0008681
        k(  651) = (   0.1875000   0.3488158   0.0000000), wk =   0.0008681
        k(  652) = (   0.1875000   0.3608439   0.0000000), wk =   0.0008681
        k(  653) = (   0.1875000   0.3728720   0.0000000), wk =   0.0008681
        k(  654) = (   0.1875000   0.3849002   0.0000000), wk =   0.0008681
        k(  655) = (   0.1875000   0.3969283   0.0000000), wk =   0.0008681
        k(  656) = (   0.1875000   0.4089564   0.0000000), wk =   0.0008681
        k(  657) = (   0.1875000   0.4209846   0.0000000), wk =   0.0008681
        k(  658) = (   0.1875000   0.4330127   0.0000000), wk =   0.0008681
        k(  659) = (   0.1875000   0.4450408   0.0000000), wk =   0.0008681
        k(  660) = (   0.1875000   0.4570690   0.0000000), wk =   0.0008681
        k(  661) = (   0.1875000   0.4690971   0.0000000), wk =   0.0008681
        k(  662) = (   0.1875000   0.4811252   0.0000000), wk =   0.0008681
        k(  663) = (   0.1875000   0.4931534   0.0000000), wk =   0.0008681
        k(  664) = (   0.1875000   0.5051815   0.0000000), wk =   0.0008681
        k(  665) = (   0.1875000   0.5172096   0.0000000), wk =   0.0008681
        k(  666) = (   0.1875000   0.5292377   0.0000000), wk =   0.0008681
        k(  667) = (   0.1875000   0.5412659   0.0000000), wk =   0.0008681
        k(  668) = (   0.1875000   0.5532940   0.0000000), wk =   0.0008681
        k(  669) = (   0.1875000   0.5653221   0.0000000), wk =   0.0008681
        k(  670) = (   0.1875000   0.5773503   0.0000000), wk =   0.0004340
        k(  671) = (   0.1979167   0.3428017   0.0000000), wk =   0.0008681
        k(  672) = (   0.1979167   0.3548299   0.0000000), wk =   0.0008681
        k(  673) = (   0.1979167   0.3668580   0.0000000), wk =   0.0008681
        k(  674) = (   0.1979167   0.3788861   0.0000000), wk =   0.0008681
        k(  675) = (   0.1979167   0.3909142   0.0000000), wk =   0.0008681
        k(  676) = (   0.1979167   0.4029424   0.0000000), wk =   0.0008681
        k(  677) = (   0.1979167   0.4149705   0.0000000), wk =   0.0008681
        k(  678) = (   0.1979167   0.4269986   0.0000000), wk =   0.0008681
        k(  679) = (   0.1979167   0.4390268   0.0000000), wk =   0.0008681
        k(  680) = (   0.1979167   0.4510549   0.0000000), wk =   0.0008681
        k(  681) = (   0.1979167   0.4630830   0.0000000), wk =   0.0008681
        k(  682) = (   0.1979167   0.4751112   0.0000000), wk =   0.0008681
        k(  683) = (   0.1979167   0.4871393   0.0000000), wk =   0.0008681
        k(  684) = (   0.1979167   0.4991674   0.0000000), wk =   0.0008681
        k(  685) = (   0.1979167   0.5111956   0.0000000), wk =   0.0008681
        k(  686) = (   0.1979167   0.5232237   0.0000000), wk =   0.0008681
        k(  687) = (   0.1979167   0.5352518   0.0000000), wk =   0.0008681
        k(  688) = (   0.1979167   0.5472799   0.0000000), wk =   0.0008681
        k(  689) = (   0.1979167   0.5593081   0.0000000), wk =   0.0008681
        k(  690) = (   0.1979167   0.5713362   0.0000000), wk =   0.0008681
        k(  691) = (   0.2083333   0.3608439   0.0000000), wk =   0.0008681
        k(  692) = (   0.2083333   0.3728720   0.0000000), wk =   0.0008681
        k(  693) = (   0.2083333   0.3849002   0.0000000), wk =   0.0008681
        k(  694) = (   0.2083333   0.3969283   0.0000000), wk =   0.0008681
        k(  695) = (   0.2083333   0.4089564   0.0000000), wk =   0.0008681
        k(  696) = (   0.2083333   0.4209846   0.0000000), wk =   0.0008681
        k(  697) = (   0.2083333   0.4330127   0.0000000), wk =   0.0008681
        k(  698) = (   0.2083333   0.4450408   0.0000000), wk =   0.0008681
        k(  699) = (   0.2083333   0.4570690   0.0000000), wk =   0.0008681
        k(  700) = (   0.2083333   0.4690971   0.0000000), wk =   0.0008681
        k(  701) = (   0.2083333   0.4811252   0.0000000), wk =   0.0008681
        k(  702) = (   0.2083333   0.4931534   0.0000000), wk =   0.0008681
        k(  703) = (   0.2083333   0.5051815   0.0000000), wk =   0.0008681
        k(  704) = (   0.2083333   0.5172096   0.0000000), wk =   0.0008681
        k(  705) = (   0.2083333   0.5292377   0.0000000), wk =   0.0008681
        k(  706) = (   0.2083333   0.5412659   0.0000000), wk =   0.0008681
        k(  707) = (   0.2083333   0.5532940   0.0000000), wk =   0.0008681
        k(  708) = (   0.2083333   0.5653221   0.0000000), wk =   0.0008681
        k(  709) = (   0.2083333   0.5773503   0.0000000), wk =   0.0004340
        k(  710) = (   0.2187500   0.3788861   0.0000000), wk =   0.0008681
        k(  711) = (   0.2187500   0.3909142   0.0000000), wk =   0.0008681
        k(  712) = (   0.2187500   0.4029424   0.0000000), wk =   0.0008681
        k(  713) = (   0.2187500   0.4149705   0.0000000), wk =   0.0008681
        k(  714) = (   0.2187500   0.4269986   0.0000000), wk =   0.0008681
        k(  715) = (   0.2187500   0.4390268   0.0000000), wk =   0.0008681
        k(  716) = (   0.2187500   0.4510549   0.0000000), wk =   0.0008681
        k(  717) = (   0.2187500   0.4630830   0.0000000), wk =   0.0008681
        k(  718) = (   0.2187500   0.4751112   0.0000000), wk =   0.0008681
        k(  719) = (   0.2187500   0.4871393   0.0000000), wk =   0.0008681
        k(  720) = (   0.2187500   0.4991674   0.0000000), wk =   0.0008681
        k(  721) = (   0.2187500   0.5111956   0.0000000), wk =   0.0008681
        k(  722) = (   0.2187500   0.5232237   0.0000000), wk =   0.0008681
        k(  723) = (   0.2187500   0.5352518   0.0000000), wk =   0.0008681
        k(  724) = (   0.2187500   0.5472799   0.0000000), wk =   0.0008681
        k(  725) = (   0.2187500   0.5593081   0.0000000), wk =   0.0008681
        k(  726) = (   0.2187500   0.5713362   0.0000000), wk =   0.0008681
        k(  727) = (   0.2291667   0.3969283   0.0000000), wk =   0.0008681
        k(  728) = (   0.2291667   0.4089564   0.0000000), wk =   0.0008681
        k(  729) = (   0.2291667   0.4209846   0.0000000), wk =   0.0008681
        k(  730) = (   0.2291667   0.4330127   0.0000000), wk =   0.0008681
        k(  731) = (   0.2291667   0.4450408   0.0000000), wk =   0.0008681
        k(  732) = (   0.2291667   0.4570690   0.0000000), wk =   0.0008681
        k(  733) = (   0.2291667   0.4690971   0.0000000), wk =   0.0008681
        k(  734) = (   0.2291667   0.4811252   0.0000000), wk =   0.0008681
        k(  735) = (   0.2291667   0.4931534   0.0000000), wk =   0.0008681
        k(  736) = (   0.2291667   0.5051815   0.0000000), wk =   0.0008681
        k(  737) = (   0.2291667   0.5172096   0.0000000), wk =   0.0008681
        k(  738) = (   0.2291667   0.5292377   0.0000000), wk =   0.0008681
        k(  739) = (   0.2291667   0.5412659   0.0000000), wk =   0.0008681
        k(  740) = (   0.2291667   0.5532940   0.0000000), wk =   0.0008681
        k(  741) = (   0.2291667   0.5653221   0.0000000), wk =   0.0008681
        k(  742) = (   0.2291667   0.5773503   0.0000000), wk =   0.0004340
        k(  743) = (   0.2395833   0.4149705   0.0000000), wk =   0.0008681
        k(  744) = (   0.2395833   0.4269986   0.0000000), wk =   0.0008681
        k(  745) = (   0.2395833   0.4390268   0.0000000), wk =   0.0008681
        k(  746) = (   0.2395833   0.4510549   0.0000000), wk =   0.0008681
        k(  747) = (   0.2395833   0.4630830   0.0000000), wk =   0.0008681
        k(  748) = (   0.2395833   0.4751112   0.0000000), wk =   0.0008681
        k(  749) = (   0.2395833   0.4871393   0.0000000), wk =   0.0008681
        k(  750) = (   0.2395833   0.4991674   0.0000000), wk =   0.0008681
        k(  751) = (   0.2395833   0.5111956   0.0000000), wk =   0.0008681
        k(  752) = (   0.2395833   0.5232237   0.0000000), wk =   0.0008681
        k(  753) = (   0.2395833   0.5352518   0.0000000), wk =   0.0008681
        k(  754) = (   0.2395833   0.5472799   0.0000000), wk =   0.0008681
        k(  755) = (   0.2395833   0.5593081   0.0000000), wk =   0.0008681
        k(  756) = (   0.2395833   0.5713362   0.0000000), wk =   0.0008681
        k(  757) = (   0.2500000   0.4330127   0.0000000), wk =   0.0008681
        k(  758) = (   0.2500000   0.4450408   0.0000000), wk =   0.0008681
        k(  759) = (   0.2500000   0.4570690   0.0000000), wk =   0.0008681
        k(  760) = (   0.2500000   0.4690971   0.0000000), wk =   0.0008681
        k(  761) = (   0.2500000   0.4811252   0.0000000), wk =   0.0008681
        k(  762) = (   0.2500000   0.4931534   0.0000000), wk =   0.0008681
        k(  763) = (   0.2500000   0.5051815   0.0000000), wk =   0.0008681
        k(  764) = (   0.2500000   0.5172096   0.0000000), wk =   0.0008681
        k(  765) = (   0.2500000   0.5292377   0.0000000), wk =   0.0008681
        k(  766) = (   0.2500000   0.5412659   0.0000000), wk =   0.0008681
        k(  767) = (   0.2500000   0.5532940   0.0000000), wk =   0.0008681
        k(  768) = (   0.2500000   0.5653221   0.0000000), wk =   0.0008681
        k(  769) = (   0.2500000   0.5773503   0.0000000), wk =   0.0004340
        k(  770) = (   0.2604167   0.4510549   0.0000000), wk =   0.0008681
        k(  771) = (   0.2604167   0.4630830   0.0000000), wk =   0.0008681
        k(  772) = (   0.2604167   0.4751112   0.0000000), wk =   0.0008681
        k(  773) = (   0.2604167   0.4871393   0.0000000), wk =   0.0008681
        k(  774) = (   0.2604167   0.4991674   0.0000000), wk =   0.0008681
        k(  775) = (   0.2604167   0.5111956   0.0000000), wk =   0.0008681
        k(  776) = (   0.2604167   0.5232237   0.0000000), wk =   0.0008681
        k(  777) = (   0.2604167   0.5352518   0.0000000), wk =   0.0008681
        k(  778) = (   0.2604167   0.5472799   0.0000000), wk =   0.0008681
        k(  779) = (   0.2604167   0.5593081   0.0000000), wk =   0.0008681
        k(  780) = (   0.2604167   0.5713362   0.0000000), wk =   0.0008681
        k(  781) = (   0.2708333   0.4690971   0.0000000), wk =   0.0008681
        k(  782) = (   0.2708333   0.4811252   0.0000000), wk =   0.0008681
        k(  783) = (   0.2708333   0.4931534   0.0000000), wk =   0.0008681
        k(  784) = (   0.2708333   0.5051815   0.0000000), wk =   0.0008681
        k(  785) = (   0.2708333   0.5172096   0.0000000), wk =   0.0008681
        k(  786) = (   0.2708333   0.5292377   0.0000000), wk =   0.0008681
        k(  787) = (   0.2708333   0.5412659   0.0000000), wk =   0.0008681
        k(  788) = (   0.2708333   0.5532940   0.0000000), wk =   0.0008681
        k(  789) = (   0.2708333   0.5653221   0.0000000), wk =   0.0008681
        k(  790) = (   0.2708333   0.5773503   0.0000000), wk =   0.0004340
        k(  791) = (   0.2812500   0.4871393   0.0000000), wk =   0.0008681
        k(  792) = (   0.2812500   0.4991674   0.0000000), wk =   0.0008681
        k(  793) = (   0.2812500   0.5111956   0.0000000), wk =   0.0008681
        k(  794) = (   0.2812500   0.5232237   0.0000000), wk =   0.0008681
        k(  795) = (   0.2812500   0.5352518   0.0000000), wk =   0.0008681
        k(  796) = (   0.2812500   0.5472799   0.0000000), wk =   0.0008681
        k(  797) = (   0.2812500   0.5593081   0.0000000), wk =   0.0008681
        k(  798) = (   0.2812500   0.5713362   0.0000000), wk =   0.0008681
        k(  799) = (   0.2916667   0.5051815   0.0000000), wk =   0.0008681
        k(  800) = (   0.2916667   0.5172096   0.0000000), wk =   0.0008681
        k(  801) = (   0.2916667   0.5292377   0.0000000), wk =   0.0008681
        k(  802) = (   0.2916667   0.5412659   0.0000000), wk =   0.0008681
        k(  803) = (   0.2916667   0.5532940   0.0000000), wk =   0.0008681
        k(  804) = (   0.2916667   0.5653221   0.0000000), wk =   0.0008681
        k(  805) = (   0.2916667   0.5773503   0.0000000), wk =   0.0004340
        k(  806) = (   0.3020833   0.5232237   0.0000000), wk =   0.0008681
        k(  807) = (   0.3020833   0.5352518   0.0000000), wk =   0.0008681
        k(  808) = (   0.3020833   0.5472799   0.0000000), wk =   0.0008681
        k(  809) = (   0.3020833   0.5593081   0.0000000), wk =   0.0008681
        k(  810) = (   0.3020833   0.5713362   0.0000000), wk =   0.0008681
        k(  811) = (   0.3125000   0.5412659   0.0000000), wk =   0.0008681
        k(  812) = (   0.3125000   0.5532940   0.0000000), wk =   0.0008681
        k(  813) = (   0.3125000   0.5653221   0.0000000), wk =   0.0008681
        k(  814) = (   0.3125000   0.5773503   0.0000000), wk =   0.0004340
        k(  815) = (   0.3229167   0.5593081   0.0000000), wk =   0.0008681
        k(  816) = (   0.3229167   0.5713362   0.0000000), wk =   0.0008681
        k(  817) = (   0.3333333   0.5773503   0.0000000), wk =   0.0004340
        k(  818) = (  -0.0104167   0.0060141   0.0000000), wk =   0.0008681
        k(  819) = (  -0.0208333   0.0120281   0.0000000), wk =   0.0008681
        k(  820) = (  -0.0312500   0.0180422   0.0000000), wk =   0.0008681
        k(  821) = (  -0.0416667   0.0240563   0.0000000), wk =   0.0008681
        k(  822) = (  -0.0520833   0.0300703   0.0000000), wk =   0.0008681
        k(  823) = (  -0.0625000   0.0360844   0.0000000), wk =   0.0008681
        k(  824) = (  -0.0729167   0.0420985   0.0000000), wk =   0.0008681
        k(  825) = (  -0.0833333   0.0481125   0.0000000), wk =   0.0008681
        k(  826) = (  -0.0937500   0.0541266   0.0000000), wk =   0.0008681
        k(  827) = (  -0.1041667   0.0601407   0.0000000), wk =   0.0008681
        k(  828) = (  -0.1145833   0.0661547   0.0000000), wk =   0.0008681
        k(  829) = (  -0.1250000   0.0721688   0.0000000), wk =   0.0008681
        k(  830) = (  -0.1354167   0.0781828   0.0000000), wk =   0.0008681
        k(  831) = (  -0.1458333   0.0841969   0.0000000), wk =   0.0008681
        k(  832) = (  -0.1562500   0.0902110   0.0000000), wk =   0.0008681
        k(  833) = (  -0.1666667   0.0962250   0.0000000), wk =   0.0008681
        k(  834) = (  -0.1770833   0.1022391   0.0000000), wk =   0.0008681
        k(  835) = (  -0.1875000   0.1082532   0.0000000), wk =   0.0008681
        k(  836) = (  -0.1979167   0.1142672   0.0000000), wk =   0.0008681
        k(  837) = (  -0.2083333   0.1202813   0.0000000), wk =   0.0008681
        k(  838) = (  -0.2187500   0.1262954   0.0000000), wk =   0.0008681
        k(  839) = (  -0.2291667   0.1323094   0.0000000), wk =   0.0008681
        k(  840) = (  -0.2395833   0.1383235   0.0000000), wk =   0.0008681
        k(  841) = (  -0.2500000   0.1443376   0.0000000), wk =   0.0008681
        k(  842) = (  -0.2604167   0.1503516   0.0000000), wk =   0.0008681
        k(  843) = (  -0.2708333   0.1563657   0.0000000), wk =   0.0008681
        k(  844) = (  -0.2812500   0.1623798   0.0000000), wk =   0.0008681
        k(  845) = (  -0.2916667   0.1683938   0.0000000), wk =   0.0008681
        k(  846) = (  -0.3020833   0.1744079   0.0000000), wk =   0.0008681
        k(  847) = (  -0.3125000   0.1804220   0.0000000), wk =   0.0008681
        k(  848) = (  -0.3229167   0.1864360   0.0000000), wk =   0.0008681
        k(  849) = (  -0.3333333   0.1924501   0.0000000), wk =   0.0008681
        k(  850) = (  -0.3437500   0.1984642   0.0000000), wk =   0.0008681
        k(  851) = (  -0.3541667   0.2044782   0.0000000), wk =   0.0008681
        k(  852) = (  -0.3645833   0.2104923   0.0000000), wk =   0.0008681
        k(  853) = (  -0.3750000   0.2165064   0.0000000), wk =   0.0008681
        k(  854) = (  -0.3854167   0.2225204   0.0000000), wk =   0.0008681
        k(  855) = (  -0.3958333   0.2285345   0.0000000), wk =   0.0008681
        k(  856) = (  -0.4062500   0.2345485   0.0000000), wk =   0.0008681
        k(  857) = (  -0.4166667   0.2405626   0.0000000), wk =   0.0008681
        k(  858) = (  -0.4270833   0.2465767   0.0000000), wk =   0.0008681
        k(  859) = (  -0.4375000   0.2525907   0.0000000), wk =   0.0008681
        k(  860) = (  -0.4479167   0.2586048   0.0000000), wk =   0.0008681
        k(  861) = (  -0.4583333   0.2646189   0.0000000), wk =   0.0008681
        k(  862) = (  -0.4687500   0.2706329   0.0000000), wk =   0.0008681
        k(  863) = (  -0.4791667   0.2766470   0.0000000), wk =   0.0008681
        k(  864) = (  -0.4895833   0.2826611   0.0000000), wk =   0.0008681
        k(  865) = (   0.5000000  -0.2886751   0.0000000), wk =   0.0004340
        k(  866) = (   0.0208333   0.0000000   0.0000000), wk =   0.0004340
        k(  867) = (  -0.0208333   0.0240563   0.0000000), wk =   0.0008681
        k(  868) = (   0.0312500   0.0060141   0.0000000), wk =   0.0008681
        k(  869) = (  -0.0312500   0.0300703   0.0000000), wk =   0.0008681
        k(  870) = (   0.0416667   0.0120281   0.0000000), wk =   0.0008681
        k(  871) = (  -0.0416667   0.0360844   0.0000000), wk =   0.0008681
        k(  872) = (   0.0520833   0.0180422   0.0000000), wk =   0.0008681
        k(  873) = (  -0.0520833   0.0420985   0.0000000), wk =   0.0008681
        k(  874) = (   0.0625000   0.0240563   0.0000000), wk =   0.0008681
        k(  875) = (  -0.0625000   0.0481125   0.0000000), wk =   0.0008681
        k(  876) = (   0.0729167   0.0300703   0.0000000), wk =   0.0008681
        k(  877) = (  -0.0729167   0.0541266   0.0000000), wk =   0.0008681
        k(  878) = (   0.0833333   0.0360844   0.0000000), wk =   0.0008681
        k(  879) = (  -0.0833333   0.0601407   0.0000000), wk =   0.0008681
        k(  880) = (   0.0937500   0.0420985   0.0000000), wk =   0.0008681
        k(  881) = (  -0.0937500   0.0661547   0.0000000), wk =   0.0008681
        k(  882) = (   0.1041667   0.0481125   0.0000000), wk =   0.0008681
        k(  883) = (  -0.1041667   0.0721688   0.0000000), wk =   0.0008681
        k(  884) = (   0.1145833   0.0541266   0.0000000), wk =   0.0008681
        k(  885) = (  -0.1145833   0.0781828   0.0000000), wk =   0.0008681
        k(  886) = (   0.1250000   0.0601407   0.0000000), wk =   0.0008681
        k(  887) = (  -0.1250000   0.0841969   0.0000000), wk =   0.0008681
        k(  888) = (   0.1354167   0.0661547   0.0000000), wk =   0.0008681
        k(  889) = (  -0.1354167   0.0902110   0.0000000), wk =   0.0008681
        k(  890) = (   0.1458333   0.0721688   0.0000000), wk =   0.0008681
        k(  891) = (  -0.1458333   0.0962250   0.0000000), wk =   0.0008681
        k(  892) = (   0.1562500   0.0781828   0.0000000), wk =   0.0008681
        k(  893) = (  -0.1562500   0.1022391   0.0000000), wk =   0.0008681
        k(  894) = (   0.1666667   0.0841969   0.0000000), wk =   0.0008681
        k(  895) = (  -0.1666667   0.1082532   0.0000000), wk =   0.0008681
        k(  896) = (   0.1770833   0.0902110   0.0000000), wk =   0.0008681
        k(  897) = (  -0.1770833   0.1142672   0.0000000), wk =   0.0008681
        k(  898) = (   0.1875000   0.0962250   0.0000000), wk =   0.0008681
        k(  899) = (  -0.1875000   0.1202813   0.0000000), wk =   0.0008681
        k(  900) = (   0.1979167   0.1022391   0.0000000), wk =   0.0008681
        k(  901) = (  -0.1979167   0.1262954   0.0000000), wk =   0.0008681
        k(  902) = (   0.2083333   0.1082532   0.0000000), wk =   0.0008681
        k(  903) = (  -0.2083333   0.1323094   0.0000000), wk =   0.0008681
        k(  904) = (   0.2187500   0.1142672   0.0000000), wk =   0.0008681
        k(  905) = (  -0.2187500   0.1383235   0.0000000), wk =   0.0008681
        k(  906) = (   0.2291667   0.1202813   0.0000000), wk =   0.0008681
        k(  907) = (  -0.2291667   0.1443376   0.0000000), wk =   0.0008681
        k(  908) = (   0.2395833   0.1262954   0.0000000), wk =   0.0008681
        k(  909) = (  -0.2395833   0.1503516   0.0000000), wk =   0.0008681
        k(  910) = (   0.2500000   0.1323094   0.0000000), wk =   0.0008681
        k(  911) = (  -0.2500000   0.1563657   0.0000000), wk =   0.0008681
        k(  912) = (   0.2604167   0.1383235   0.0000000), wk =   0.0008681
        k(  913) = (  -0.2604167   0.1623798   0.0000000), wk =   0.0008681
        k(  914) = (   0.2708333   0.1443376   0.0000000), wk =   0.0008681
        k(  915) = (  -0.2708333   0.1683938   0.0000000), wk =   0.0008681
        k(  916) = (   0.2812500   0.1503516   0.0000000), wk =   0.0008681
        k(  917) = (  -0.2812500   0.1744079   0.0000000), wk =   0.0008681
        k(  918) = (   0.2916667   0.1563657   0.0000000), wk =   0.0008681
        k(  919) = (  -0.2916667   0.1804220   0.0000000), wk =   0.0008681
        k(  920) = (   0.3020833   0.1623798   0.0000000), wk =   0.0008681
        k(  921) = (  -0.3020833   0.1864360   0.0000000), wk =   0.0008681
        k(  922) = (   0.3125000   0.1683938   0.0000000), wk =   0.0008681
        k(  923) = (  -0.3125000   0.1924501   0.0000000), wk =   0.0008681
        k(  924) = (   0.3229167   0.1744079   0.0000000), wk =   0.0008681
        k(  925) = (  -0.3229167   0.1984642   0.0000000), wk =   0.0008681
        k(  926) = (   0.3333333   0.1804220   0.0000000), wk =   0.0008681
        k(  927) = (  -0.3333333   0.2044782   0.0000000), wk =   0.0008681
        k(  928) = (   0.3437500   0.1864360   0.0000000), wk =   0.0008681
        k(  929) = (  -0.3437500   0.2104923   0.0000000), wk =   0.0008681
        k(  930) = (   0.3541667   0.1924501   0.0000000), wk =   0.0008681
        k(  931) = (  -0.3541667   0.2165064   0.0000000), wk =   0.0008681
        k(  932) = (   0.3645833   0.1984642   0.0000000), wk =   0.0008681
        k(  933) = (  -0.3645833   0.2225204   0.0000000), wk =   0.0008681
        k(  934) = (   0.3750000   0.2044782   0.0000000), wk =   0.0008681
        k(  935) = (  -0.3750000   0.2285345   0.0000000), wk =   0.0008681
        k(  936) = (   0.3854167   0.2104923   0.0000000), wk =   0.0008681
        k(  937) = (  -0.3854167   0.2345485   0.0000000), wk =   0.0008681
        k(  938) = (   0.3958333   0.2165064   0.0000000), wk =   0.0008681
        k(  939) = (  -0.3958333   0.2405626   0.0000000), wk =   0.0008681
        k(  940) = (   0.4062500   0.2225204   0.0000000), wk =   0.0008681
        k(  941) = (  -0.4062500   0.2465767   0.0000000), wk =   0.0008681
        k(  942) = (   0.4166667   0.2285345   0.0000000), wk =   0.0008681
        k(  943) = (  -0.4166667   0.2525907   0.0000000), wk =   0.0008681
        k(  944) = (   0.4270833   0.2345485   0.0000000), wk =   0.0008681
        k(  945) = (  -0.4270833   0.2586048   0.0000000), wk =   0.0008681
        k(  946) = (   0.4375000   0.2405626   0.0000000), wk =   0.0008681
        k(  947) = (  -0.4375000   0.2646189   0.0000000), wk =   0.0008681
        k(  948) = (   0.4479167   0.2465767   0.0000000), wk =   0.0008681
        k(  949) = (  -0.4479167   0.2706329   0.0000000), wk =   0.0008681
        k(  950) = (   0.4583333   0.2525907   0.0000000), wk =   0.0008681
        k(  951) = (  -0.4583333   0.2766470   0.0000000), wk =   0.0008681
        k(  952) = (   0.4687500   0.2586048   0.0000000), wk =   0.0008681
        k(  953) = (  -0.4687500   0.2826611   0.0000000), wk =   0.0008681
        k(  954) = (   0.4791667   0.2646189   0.0000000), wk =   0.0008681
        k(  955) = (  -0.4791667   0.2886751   0.0000000), wk =   0.0008681
        k(  956) = (   0.4895833   0.2706329   0.0000000), wk =   0.0008681
        k(  957) = (  -0.4895833   0.2946892   0.0000000), wk =   0.0008681
        k(  958) = (   0.5000000   0.2766470   0.0000000), wk =   0.0008681
        k(  959) = (   0.0416667   0.0000000   0.0000000), wk =   0.0004340
        k(  960) = (  -0.0312500   0.0420985   0.0000000), wk =   0.0008681
        k(  961) = (   0.0520833   0.0060141   0.0000000), wk =   0.0008681
        k(  962) = (  -0.0416667   0.0481125   0.0000000), wk =   0.0008681
        k(  963) = (   0.0625000   0.0120281   0.0000000), wk =   0.0008681
        k(  964) = (  -0.0520833   0.0541266   0.0000000), wk =   0.0008681
        k(  965) = (   0.0729167   0.0180422   0.0000000), wk =   0.0008681
        k(  966) = (  -0.0625000   0.0601407   0.0000000), wk =   0.0008681
        k(  967) = (   0.0833333   0.0240563   0.0000000), wk =   0.0008681
        k(  968) = (  -0.0729167   0.0661547   0.0000000), wk =   0.0008681
        k(  969) = (   0.0937500   0.0300703   0.0000000), wk =   0.0008681
        k(  970) = (  -0.0833333   0.0721688   0.0000000), wk =   0.0008681
        k(  971) = (   0.1041667   0.0360844   0.0000000), wk =   0.0008681
        k(  972) = (  -0.0937500   0.0781828   0.0000000), wk =   0.0008681
        k(  973) = (   0.1145833   0.0420985   0.0000000), wk =   0.0008681
[...]
     1.0000   1.0000   1.0000   1.0000   0.0000   0.0000   0.0000   0.0000

          k =-0.3333 0.4932 0.0000 (  2711 PWs)   bands (ev):

   -15.3401 -13.7091 -11.5345  -2.8646  -0.5408   9.1561   9.8636  10.7582

     occupation numbers 
     1.0000   1.0000   1.0000   1.0000   0.0000   0.0000   0.0000   0.0000

          k = 0.5938 0.0421 0.0000 (  2711 PWs)   bands (ev):

   -15.3381 -13.7189 -11.5260  -2.8540  -0.5557   9.1624   9.8666  10.7480

     occupation numbers 
     1.0000   1.0000   1.0000   1.0000   0.0000   0.0000   0.0000   0.0000

          k =-0.3438 0.4992 0.0000 (  2711 PWs)   bands (ev):

   -15.1766 -13.8750 -11.5658  -2.7378  -0.6731   9.1639  10.1265  10.7488

     occupation numbers 
     1.0000   1.0000   1.0000   1.0000   0.0000   0.0000   0.0000   0.0000

          k = 0.6042 0.0481 0.0000 (  2711 PWs)   bands (ev):

   -15.1744 -13.8827 -11.5598  -2.7290  -0.6850   9.1685  10.1318  10.7330

     occupation numbers 
     1.0000   1.0000   1.0000   1.0000   0.0000   0.0000   0.0000   0.0000

          k =-0.3542 0.5052 0.0000 (  2709 PWs)   bands (ev):

   -15.0372 -14.0167 -11.5859  -2.6422  -0.7726   9.1674  10.3734  10.7412

     occupation numbers 
     1.0000   1.0000   1.0000   1.0000   0.0000   0.0000   0.0000   0.0000

          k = 0.6146 0.0541 0.0000 (  2709 PWs)   bands (ev):

   -15.0352 -14.0219 -11.5824  -2.6363  -0.7803   9.1702  10.3842  10.7171

     occupation numbers 
     1.0000   1.0000   1.0000   1.0000   0.0000   0.0000   0.0000   0.0000

          k =-0.3646 0.5112 0.0000 (  2705 PWs)   bands (ev):

   -14.9494 -14.1063 -11.5953  -2.5892  -0.8278   9.1690  10.5735  10.7226

     occupation numbers 
     1.0000   1.0000   1.0000   1.0000   0.0000   0.0000   0.0000   0.0000

          k = 0.6250 0.0601 0.0000 (  2705 PWs)   bands (ev):

   -14.9485 -14.1082 -11.5941  -2.5871  -0.8305   9.1700  10.5951  10.6909

     occupation numbers 
     1.0000   1.0000   1.0000   1.0000   0.0000   0.0000   0.0000   0.0000

          k = 0.5417-0.0000 0.0000 (  2715 PWs)   bands (ev):

   -16.2359 -12.8297 -11.1881  -3.6894   0.3294   8.5240   8.8879  10.0229

     occupation numbers 
     1.0000   1.0000   1.0000   1.0000   0.0000   0.0000   0.0000   0.0000

          k =-0.2812 0.4751 0.0000 (  2711 PWs)   bands (ev):

   -16.0592 -12.9526 -11.3354  -3.5226   0.1625   8.7832   8.9737  10.2956

     occupation numbers 
     1.0000   1.0000   1.0000   1.0000   0.0000   0.0000   0.0000   0.0000

          k = 0.5521 0.0060 0.0000 (  2711 PWs)   bands (ev):

   -16.0584 -12.9749 -11.3124  -3.5088   0.1392   8.7835   8.9836  10.2971

     occupation numbers 
     1.0000   1.0000   1.0000   1.0000   0.0000   0.0000   0.0000   0.0000

          k =-0.2917 0.4811 0.0000 (  2713 PWs)   bands (ev):

   -15.8803 -13.1080 -11.4405  -3.3437  -0.0256   9.0394   9.0463  10.5732

     occupation numbers 
     1.0000   1.0000   1.0000   1.0000   0.0000   0.0000   0.0000   0.0000

          k = 0.5625 0.0120 0.0000 (  2713 PWs)   bands (ev):

   -15.8792 -13.1280 -11.4202  -3.3298  -0.0480   9.0468   9.0494  10.5758

     occupation numbers 
     1.0000   1.0000   1.0000   1.0000   0.0000   0.0000   0.0000   0.0000

          k =-0.3021 0.4871 0.0000 (  2713 PWs)   bands (ev):

   -15.7007 -13.2703 -11.5289  -3.1682  -0.2092   9.0796   9.3122  10.8452

     occupation numbers 
     1.0000   1.0000   1.0000   1.0000   0.0000   0.0000   0.0000   0.0000

          k = 0.5729 0.0180 0.0000 (  2713 PWs)   bands (ev):

   -15.6991 -13.2880 -11.5116  -3.1543  -0.2304   9.0891   9.3130  10.8514

     occupation numbers 
     1.0000   1.0000   1.0000   1.0000   0.0000   0.0000   0.0000   0.0000

          k =-0.3125 0.4932 0.0000 (  2711 PWs)   bands (ev):

   -15.5215 -13.4373 -11.6015  -2.9986  -0.3856   9.1008   9.5795  10.9876

     occupation numbers 
     1.0000   1.0000   1.0000   1.0000   0.0000   0.0000   0.0000   0.0000

          k = 0.5833 0.0241 0.0000 (  2711 PWs)   bands (ev):

   -15.5195 -13.4527 -11.5871  -2.9850  -0.4053   9.1092   9.5808  10.9833

     occupation numbers 
     1.0000   1.0000   1.0000   1.0000   0.0000   0.0000   0.0000   0.0000

          k =-0.3229 0.4992 0.0000 (  2709 PWs)   bands (ev):

   -15.3451 -13.6060 -11.6589  -2.8388  -0.5509   9.1093   9.8462  10.9828

     occupation numbers 
     1.0000   1.0000   1.0000   1.0000   0.0000   0.0000   0.0000   0.0000

          k = 0.5938 0.0301 0.0000 (  2709 PWs)   bands (ev):

   -15.3426 -13.6190 -11.6476  -2.8260  -0.5687   9.1164   9.8483  10.9700

     occupation numbers 
     1.0000   1.0000   1.0000   1.0000   0.0000   0.0000   0.0000   0.0000

          k =-0.3333 0.5052 0.0000 (  2715 PWs)   bands (ev):

   -15.1755 -13.7710 -11.7022  -2.6950  -0.6992   9.1109  10.1091  10.9676

     occupation numbers 
     1.0000   1.0000   1.0000   1.0000   0.0000   0.0000   0.0000   0.0000

          k = 0.6042 0.0361 0.0000 (  2715 PWs)   bands (ev):

   -15.1727 -13.7816 -11.6938  -2.6837  -0.7143   9.1163  10.1126  10.9497

     occupation numbers 
     1.0000   1.0000   1.0000   1.0000   0.0000   0.0000   0.0000   0.0000

          k =-0.3438 0.5112 0.0000 (  2711 PWs)   bands (ev):

   -15.0214 -13.9228 -11.7322  -2.5764  -0.8213   9.1096  10.3622  10.9484

     occupation numbers 
     1.0000   1.0000   1.0000   1.0000   0.0000   0.0000   0.0000   0.0000

          k = 0.6146 0.0421 0.0000 (  2711 PWs)   bands (ev):

   -15.0186 -13.9308 -11.7266  -2.5676  -0.8326   9.1133  10.3686  10.9247

     occupation numbers 
     1.0000   1.0000   1.0000   1.0000   0.0000   0.0000   0.0000   0.0000

          k =-0.3542 0.5172 0.0000 (  2707 PWs)   bands (ev):

   -14.9021 -14.0416 -11.7493  -2.4952  -0.9047   9.1081  10.5935  10.9093

     occupation numbers 
     1.0000   1.0000   1.0000   1.0000   0.0000   0.0000   0.0000   0.0000

          k = 0.6250 0.0481 0.0000 (  2707 PWs)   bands (ev):

   -14.9000 -14.0462 -11.7466  -2.4903  -0.9109   9.1100  10.6057  10.8807

     occupation numbers 
     1.0000   1.0000   1.0000   1.0000   0.0000   0.0000   0.0000   0.0000

          k =-0.3646 0.5232 0.0000 (  2705 PWs)   bands (ev):

   -14.8531 -14.0913 -11.7541  -2.4644  -0.9366   9.1081  10.7696  10.8079

     occupation numbers 
     1.0000   1.0000   1.0000   1.0000   0.0000   0.0000   0.0000   0.0000

          k = 0.5625 0.0000 0.0000 (  2709 PWs)   bands (ev):

   -15.8811 -13.1058 -11.4445  -3.3286  -0.0461   9.0419   9.0435  10.5735

     occupation numbers 
     1.0000   1.0000   1.0000   1.0000   0.0000   0.0000   0.0000   0.0000

          k =-0.2917 0.4932 0.0000 (  2709 PWs)   bands (ev):

   -15.7043 -13.2236 -11.5804  -3.1655  -0.2052   9.0636   9.3059  10.8497

     occupation numbers 
     1.0000   1.0000   1.0000   1.0000   0.0000   0.0000   0.0000   0.0000

          k = 0.5729 0.0060 0.0000 (  2709 PWs)   bands (ev):

   -15.7024 -13.2449 -11.5596  -3.1501  -0.2287   9.0736   9.3065  10.8533

     occupation numbers 
     1.0000   1.0000   1.0000   1.0000   0.0000   0.0000   0.0000   0.0000

          k =-0.3021 0.4992 0.0000 (  2713 PWs)   bands (ev):

   -15.5259 -13.3724 -11.6749  -2.9907  -0.3845   9.0766   9.5702  11.1110

     occupation numbers 
     1.0000   1.0000   1.0000   1.0000   0.0000   0.0000   0.0000   0.0000

          k = 0.5833 0.0120 0.0000 (  2713 PWs)   bands (ev):

   -15.5236 -13.3915 -11.6570  -2.9754  -0.4067   9.0857   9.5711  11.1181

     occupation numbers 
     1.0000   1.0000   1.0000   1.0000   0.0000   0.0000   0.0000   0.0000

          k =-0.3125 0.5052 0.0000 (  2715 PWs)   bands (ev):

   -15.3490 -13.5270 -11.7517  -2.8222  -0.5566   9.0774   9.8342  11.1727

     occupation numbers 
     1.0000   1.0000   1.0000   1.0000   0.0000   0.0000   0.0000   0.0000

          k = 0.5938 0.0180 0.0000 (  2715 PWs)   bands (ev):

   -15.3461 -13.5436 -11.7370  -2.8073  -0.5773   9.0852   9.8358  11.1540

     occupation numbers 
     1.0000   1.0000   1.0000   1.0000   0.0000   0.0000   0.0000   0.0000

          k =-0.3229 0.5112 0.0000 (  2715 PWs)   bands (ev):

   -15.1761 -13.6838 -11.8114  -2.6646  -0.7173   9.0720  10.0953  11.1544

     occupation numbers 
     1.0000   1.0000   1.0000   1.0000   0.0000   0.0000   0.0000   0.0000

          k = 0.6042 0.0241 0.0000 (  2715 PWs)   bands (ev):

   -15.1727 -13.6978 -11.8000  -2.6506  -0.7358   9.0783  10.0979  11.1313

     occupation numbers 
     1.0000   1.0000   1.0000   1.0000   0.0000   0.0000   0.0000   0.0000

          k =-0.3333 0.5172 0.0000 (  2711 PWs)   bands (ev):

   -15.0130 -13.8363 -11.8548  -2.5252  -0.8591   9.0648  10.3488  11.1282

     occupation numbers 
     1.0000   1.0000   1.0000   1.0000   0.0000   0.0000   0.0000   0.0000

          k = 0.6146 0.0301 0.0000 (  2711 PWs)   bands (ev):

   -15.0093 -13.8476 -11.8467  -2.5132  -0.8743   9.0693  10.3532  11.1017

     occupation numbers 
     1.0000   1.0000   1.0000   1.0000   0.0000   0.0000   0.0000   0.0000

          k =-0.3437 0.5232 0.0000 (  2709 PWs)   bands (ev):

   -14.8717 -13.9715 -11.8828  -2.4158  -0.9702   9.0587  10.5868  11.0836

     occupation numbers 
     1.0000   1.0000   1.0000   1.0000   0.0000   0.0000   0.0000   0.0000

          k = 0.6250 0.0361 0.0000 (  2709 PWs)   bands (ev):

   -14.8683 -13.9794 -11.8779  -2.4074  -0.9806   9.0615  10.5945  11.0550

     occupation numbers 
     1.0000   1.0000   1.0000   1.0000   0.0000   0.0000   0.0000   0.0000

          k =-0.3542 0.5292 0.0000 (  2709 PWs)   bands (ev):

   -14.7800 -14.0610 -11.8958  -2.3525  -1.0347   9.0557  10.7915  10.9921

     occupation numbers 
     1.0000   1.0000   1.0000   1.0000   0.0000   0.0000   0.0000   0.0000

          k = 0.6354 0.0421 0.0000 (  2709 PWs)   bands (ev):

   -14.7785 -14.0641 -11.8942  -2.3495  -1.0384   9.0567  10.8040  10.9700

     occupation numbers 
     1.0000   1.0000   1.0000   1.0000   0.0000   0.0000   0.0000   0.0000

          k = 0.5833 0.0000 0.0000 (  2717 PWs)   bands (ev):

   -15.5250 -13.3699 -11.6815  -2.9722  -0.4072   9.0778   9.5679  11.1323

     occupation numbers 
     1.0000   1.0000   1.0000   1.0000   0.0000   0.0000   0.0000   0.0000

          k =-0.3021 0.5112 0.0000 (  2721 PWs)   bands (ev):

   -15.3514 -13.4823 -11.8029  -2.8149  -0.5581   9.0610   9.8282  11.3053

     occupation numbers 
     1.0000   1.0000   1.0000   1.0000   0.0000   0.0000   0.0000   0.0000

          k = 0.5938 0.0060 0.0000 (  2721 PWs)   bands (ev):

   -15.3479 -13.5027 -11.7849  -2.7979  -0.5816   9.0695   9.8295  11.2746

     occupation numbers 
     1.0000   1.0000   1.0000   1.0000   0.0000   0.0000   0.0000   0.0000

          k =-0.3125 0.5172 0.0000 (  2713 PWs)   bands (ev):

   -15.1773 -13.6237 -11.8839  -2.6470  -0.7270   9.0481  10.0868  11.2901

     occupation numbers 
     1.0000   1.0000   1.0000   1.0000   0.0000   0.0000   0.0000   0.0000

          k = 0.6042 0.0120 0.0000 (  2713 PWs)   bands (ev):

   -15.1732 -13.6417 -11.8692  -2.6304  -0.7489   9.0551  10.0888  11.2591

     occupation numbers 
     1.0000   1.0000   1.0000   1.0000   0.0000   0.0000   0.0000   0.0000

          k =-0.3229 0.5232 0.0000 (  2713 PWs)   bands (ev):

   -15.0091 -13.7680 -11.9456  -2.4907  -0.8842   9.0341  10.3388  11.2628

     occupation numbers 
     1.0000   1.0000   1.0000   1.0000   0.0000   0.0000   0.0000   0.0000

          k = 0.6146 0.0180 0.0000 (  2713 PWs)   bands (ev):

   -15.0044 -13.7832 -11.9344  -2.4753  -0.9035   9.0394  10.3421  11.2323

     occupation numbers 
     1.0000   1.0000   1.0000   1.0000   0.0000   0.0000   0.0000   0.0000

          k =-0.3333 0.5292 0.0000 (  2713 PWs)   bands (ev):

   -14.8540 -13.9071 -11.9885  -2.3552  -1.0204   9.0222  10.5778  11.2201

     occupation numbers 
     1.0000   1.0000   1.0000   1.0000   0.0000   0.0000   0.0000   0.0000

          k = 0.6250 0.0241 0.0000 (  2713 PWs)   bands (ev):

   -14.8491 -13.9191 -11.9810  -2.3427  -1.0357   9.0259  10.5835  11.1903

     occupation numbers 
     1.0000   1.0000   1.0000   1.0000   0.0000   0.0000   0.0000   0.0000

          k =-0.3438 0.5353 0.0000 (  2717 PWs)   bands (ev):

   -14.7299 -14.0227 -12.0132  -2.2569  -1.1195   9.0147  10.7920  11.1444

     occupation numbers 
     1.0000   1.0000   1.0000   1.0000   0.0000   0.0000   0.0000   0.0000

          k = 0.6354 0.0301 0.0000 (  2717 PWs)   bands (ev):

   -14.7262 -14.0300 -12.0095  -2.2494  -1.1283   9.0165  10.8014  11.1195

     occupation numbers 
     1.0000   1.0000   1.0000   1.0000   0.0000   0.0000   0.0000   0.0000

          k =-0.3542 0.5413 0.0000 (  2715 PWs)   bands (ev):

   -14.6762 -14.0748 -12.0201  -2.2173  -1.1598   9.0127  10.9345  11.0470

     occupation numbers 
     1.0000   1.0000   1.0000   1.0000   0.0000   0.0000   0.0000   0.0000

          k = 0.6042 0.0000 0.0000 (  2717 PWs)   bands (ev):

   -15.1734 -13.6218 -11.8933  -2.6236  -0.7533   9.0473  10.0857  11.3072

     occupation numbers 
     1.0000   1.0000   1.0000   1.0000   0.0000   0.0000   0.0000   0.0000

          k =-0.3125 0.5292 0.0000 (  2713 PWs)   bands (ev):

   -15.0082 -13.7284 -11.9955  -2.4745  -0.8953   9.0182  10.3337  11.3353

     occupation numbers 
     1.0000   1.0000   1.0000   1.0000   0.0000   0.0000   0.0000   0.0000

          k = 0.6146 0.0060 0.0000 (  2713 PWs)   bands (ev):

   -15.0023 -13.7478 -11.9811  -2.4559  -0.9186   9.0243  10.3364  11.3025

     occupation numbers 
     1.0000   1.0000   1.0000   1.0000   0.0000   0.0000   0.0000   0.0000

          k =-0.3229 0.5353 0.0000 (  2715 PWs)   bands (ev):

   -14.8456 -13.8603 -12.0581  -2.3181  -1.0509   8.9996  10.5716  11.3069

     occupation numbers 
     1.0000   1.0000   1.0000   1.0000   0.0000   0.0000   0.0000   0.0000

          k = 0.6250 0.0120 0.0000 (  2715 PWs)   bands (ev):

   -14.8391 -13.8767 -12.0476  -2.3010  -1.0714   9.0041  10.5761  11.2765

     occupation numbers 
     1.0000   1.0000   1.0000   1.0000   0.0000   0.0000   0.0000   0.0000

          k =-0.3333 0.5413 0.0000 (  2717 PWs)   bands (ev):

   -14.7004 -13.9860 -12.0989  -2.1856  -1.1831   8.9864  10.7884  11.2536

     occupation numbers 
     1.0000   1.0000   1.0000   1.0000   0.0000   0.0000   0.0000   0.0000

          k = 0.6354 0.0180 0.0000 (  2717 PWs)   bands (ev):

   -14.6941 -13.9983 -12.0925  -2.1723  -1.1984   8.9891  10.7959  11.2270

     occupation numbers 
     1.0000   1.0000   1.0000   1.0000   0.0000   0.0000   0.0000   0.0000

          k =-0.3438 0.5473 0.0000 (  2725 PWs)   bands (ev):

   -14.5996 -14.0782 -12.1182  -2.1011  -1.2678   8.9799  10.9647  11.1669

     occupation numbers 
     1.0000   1.0000   1.0000   1.0000   0.0000   0.0000   0.0000   0.0000

          k = 0.6458 0.0241 0.0000 (  2725 PWs)   bands (ev):

   -14.5964 -14.0834 -12.1160  -2.0957  -1.2738   8.9808  10.9745  11.1498

     occupation numbers 
     1.0000   1.0000   1.0000   1.0000   0.0000   0.0000   0.0000   0.0000

          k = 0.6250 0.0000 0.0000 (  2715 PWs)   bands (ev):

   -14.8360 -13.8614 -12.0707  -2.2866  -1.0839   8.9968  10.5736  11.3062

     occupation numbers 
     1.0000   1.0000   1.0000   1.0000   0.0000   0.0000   0.0000   0.0000

          k =-0.3229 0.5473 0.0000 (  2723 PWs)   bands (ev):

   -14.6882 -13.9613 -12.1457  -2.1489  -1.2156   8.9717  10.7859  11.3106

     occupation numbers 
     1.0000   1.0000   1.0000   1.0000   0.0000   0.0000   0.0000   0.0000

          k = 0.6354 0.0060 0.0000 (  2723 PWs)   bands (ev):

   -14.6791 -13.9792 -12.1363  -2.1292  -1.2380   8.9752  10.7925  11.2834

     occupation numbers 
     1.0000   1.0000   1.0000   1.0000   0.0000   0.0000   0.0000   0.0000

          k =-0.3333 0.5533 0.0000 (  2725 PWs)   bands (ev):

   -14.5540 -14.0750 -12.1818  -2.0165  -1.3471   8.9595  10.9695  11.2566

     occupation numbers 
     1.0000   1.0000   1.0000   1.0000   0.0000   0.0000   0.0000   0.0000

          k = 0.6458 0.0120 0.0000 (  2725 PWs)   bands (ev):

   -14.5461 -14.0875 -12.1770  -2.0025  -1.3625   8.9613  10.9795  11.2343

     occupation numbers 
     1.0000   1.0000   1.0000   1.0000   0.0000   0.0000   0.0000   0.0000

          k =-0.3438 0.5593 0.0000 (  2727 PWs)   bands (ev):

   -14.4866 -14.1372 -12.1922  -1.9530  -1.4108   8.9559  11.0805  11.1885

     occupation numbers 
     1.0000   1.0000   1.0000   1.0000   0.0000   0.0000   0.0000   0.0000

          k = 0.6458 0.0000 0.0000 (  2733 PWs)   bands (ev):

   -14.5289 -14.0887 -12.1980  -1.9649  -1.3986   8.9547  10.9799  11.2647

     occupation numbers 
     1.0000   1.0000   1.0000   1.0000   0.0000   0.0000   0.0000   0.0000

          k =-0.3333 0.5653 0.0000 (  2727 PWs)   bands (ev):

   -14.4172 -14.1758 -12.2333  -1.8483  -1.5122   8.9428  11.1074  11.2406

     occupation numbers 
     1.0000   1.0000   1.0000   1.0000   0.0000   0.0000   0.0000   0.0000

          k = 0.6562 0.0060 0.0000 (  2727 PWs)   bands (ev):

   -14.4072 -14.1882 -12.2307  -1.8334  -1.5278   8.9437  11.1200  11.2224

     occupation numbers 
     1.0000   1.0000   1.0000   1.0000   0.0000   0.0000   0.0000   0.0000

     the Fermi energy is    -1.6905 ev
     (compare with:    -1.6916 eV, computed in scf)

     Writing all to output data dir ./tmp/graphene.save/ :
     XML data file, pseudopotentials, collected wavefunctions

     init_run     :      1.92s CPU      2.01s WALL (       1 calls)
     electrons    :   1309.13s CPU    904.28s WALL (       1 calls)

     Called by init_run:
     wfcinit      :      0.00s CPU      0.00s WALL (       1 calls)
     wfcinit:atom :      1.99s CPU      1.36s WALL (    2353 calls)
     wfcinit:wfcr :     37.40s CPU     27.47s WALL (    2353 calls)
     potinit      :      0.55s CPU      0.59s WALL (       1 calls)
     hinit0       :      0.60s CPU      0.60s WALL (       1 calls)

     Called by electrons:
     c_bands      :   1308.96s CPU    904.15s WALL (       1 calls)
     v_of_rho     :      0.06s CPU      0.08s WALL (       1 calls)
     v_h          :      0.00s CPU      0.01s WALL (       1 calls)
     v_xc         :      0.06s CPU      0.08s WALL (       1 calls)
     newd         :      0.04s CPU      0.06s WALL (       1 calls)
     PAW_pot      :      0.09s CPU      0.11s WALL (       1 calls)

     Called by c_bands:
     init_us_2    :      3.16s CPU      2.32s WALL (    2353 calls)
     cegterg      :   1253.36s CPU    864.57s WALL (    7056 calls)

     Called by sum_band:

     Called by *egterg:
     cdiaghg      :     34.89s CPU     18.26s WALL (  119349 calls)
     cegterg:over :     52.17s CPU     26.75s WALL (  116996 calls)
     cegterg:upda :     43.00s CPU     29.37s WALL (  116996 calls)
     cegterg:last :     65.45s CPU     43.96s WALL (   66083 calls)
     h_psi        :   1027.09s CPU    723.51s WALL (  126405 calls)
     s_psi        :     29.19s CPU     32.15s WALL (  126405 calls)
     g_psi        :     16.39s CPU      7.13s WALL (  116996 calls)

     Called by h_psi:
     h_psi:calbec :     33.78s CPU     27.51s WALL (  126405 calls)
     vloc_psi     :    872.19s CPU    521.15s WALL (  126405 calls)
     add_vuspsi   :    112.63s CPU    170.73s WALL (  126405 calls)

     General routines
     calbec       :     33.05s CPU     27.12s WALL (  126405 calls)
     fft          :      0.42s CPU      0.42s WALL (      13 calls)
     ffts         :      0.39s CPU      0.39s WALL (       1 calls)
     fftw         :    559.18s CPU    334.39s WALL ( 1111322 calls)
     interpolate  :      0.39s CPU      0.40s WALL (       1 calls)
     davcio       :      0.71s CPU      0.52s WALL (    4706 calls)


     PAW routines
     PAW_pot      :      0.09s CPU      0.11s WALL (       1 calls)

     PWSCF        :  21m53.18s CPU  15m 9.40s WALL


   This run was terminated on:  22:11:15   9Sep2025            

=------------------------------------------------------------------------------=
   JOB DONE.
=------------------------------------------------------------------------------=
