
     Program PWSCF v.7.4.1 starts on  9Sep2025 at 22:17:47 

     This program is part of the open-source Quantum ESPRESSO suite
     for quantum simulation of materials; please cite
         "P. Giannozzi et al., J. Phys.:Condens. Matter 21 395502 (2009);
         "P. Giannozzi et al., J. Phys.:Condens. Matter 29 465901 (2017);
         "P. Giannozzi et al., J. Chem. Phys. 152 154105 (2020);
          URL http://www.quantum-espresso.org", 
     in publications or presentations arising from this work. More details at
     http://www.quantum-espresso.org/quote

     Serial version
     1207 MiB available memory on the printing compute node when the environment starts

     Reading input from graphene_bands.in

     Current dimensions of program PWSCF are:
     Max number of different atomic species (ntypx) = 10
     Max number of k-points (npk) =  40000
     Max angular momentum in pseudopotentials (lmaxx) =  4
     file C.pbe-n-kjpaw_psl.1.0.0.UPF: wavefunction(s)  2S 2P renormalized

     Atomic positions and unit cell read from directory:
     ./tmp/graphene.save/



     G-vector sticks info
     --------------------
     sticks:   dense  smooth     PW     G-vecs:    dense   smooth      PW
     Sum         673     265     85                84753    21323    3919

     Using Slab Decomposition



     bravais-lattice index     =            4
     lattice parameter (alat)  =       4.6604  a.u.
     unit-cell volume          =     525.1250 (a.u.)^3
     number of atoms/cell      =            2
     number of atomic types    =            1
     number of electrons       =         8.00
     number of Kohn-Sham states=           20
     kinetic-energy cutoff     =      45.0000  Ry
     charge density cutoff     =     450.0000  Ry
     Exchange-correlation= SLA  PW   PBX  PBC
                           (   1   4   3   4   0   0   0)

     celldm(1)=   4.660415  celldm(2)=   0.000000  celldm(3)=   5.990434
     celldm(4)=   0.000000  celldm(5)=   0.000000  celldm(6)=   0.000000

     crystal axes: (cart. coord. in units of alat)
               a(1) = (   1.000000   0.000000   0.000000 )  
               a(2) = (  -0.500000   0.866025   0.000000 )  
               a(3) = (   0.000000   0.000000   5.990434 )  

     reciprocal axes: (cart. coord. in units 2 pi/alat)
               b(1) = (  1.000000  0.577350 -0.000000 )  
               b(2) = (  0.000000  1.154701  0.000000 )  
               b(3) = (  0.000000 -0.000000  0.166933 )  


     PseudoPot. # 1 for C  read from file:
     ../pseudos/C.pbe-n-kjpaw_psl.1.0.0.UPF
     MD5 check sum: 5d2aebdfa2cae82b50a7e79e9516da0f
     Pseudo is Projector augmented-wave + core cor, Zval =  4.0
     Generated using "atomic" code by A. Dal Corso  v.5.1
     Shape of augmentation charge: PSQ
     Using radial grid of 1073 points,  4 beta functions with: 
                l(1) =   0
                l(2) =   0
                l(3) =   1
                l(4) =   1
     Q(r) pseudized with 0 coefficients 


     atomic species   valence    mass     pseudopotential
     C                 4.00    12.01070     C ( 1.00)

      4 Sym. Ops. (no inversion) found


                                    s                        frac. trans.

      isym =  1     identity                                     

 cryst.   s( 1) = (     1          0          0      )
                  (     0          1          0      )
                  (     0          0          1      )

 cart.    s( 1) = (  1.0000000  0.0000000  0.0000000 )
                  (  0.0000000  1.0000000  0.0000000 )
                  (  0.0000000  0.0000000  1.0000000 )


      isym =  2     180 deg rotation - cart. axis [0,1,0]        

 cryst.   s( 2) = (    -1          0          0      )
                  (     1          1          0      )
                  (     0          0         -1      )

 cart.    s( 2) = ( -1.0000000  0.0000000  0.0000000 )
                  (  0.0000000  1.0000000  0.0000000 )
                  (  0.0000000  0.0000000 -1.0000000 )


      isym =  3     inv. 180 deg rotation - cart. axis [0,0,1]   

 cryst.   s( 3) = (     1          0          0      )
                  (     0          1          0      )
                  (     0          0         -1      )

 cart.    s( 3) = (  1.0000000  0.0000000  0.0000000 )
                  (  0.0000000  1.0000000  0.0000000 )
                  (  0.0000000  0.0000000 -1.0000000 )


      isym =  4     inv. 180 deg rotation - cart. axis [1,0,0]   

 cryst.   s( 4) = (    -1          0          0      )
                  (     1          1          0      )
                  (     0          0          1      )

 cart.    s( 4) = ( -1.0000000  0.0000000  0.0000000 )
                  (  0.0000000  1.0000000  0.0000000 )
                  (  0.0000000  0.0000000  1.0000000 )


     point group C_2v (mm2) 
     there are  4 classes
     the character table:

       E     C2    s_v   s_v' 
A_1    1.00  1.00  1.00  1.00
A_2    1.00  1.00 -1.00 -1.00
B_1    1.00 -1.00  1.00 -1.00
B_2    1.00 -1.00 -1.00  1.00

     the symmetry operations in each class and the name of the first element:

     E        1
          identity                                               
     C2       2
          180 deg rotation - cart. axis [0,1,0]                  
     s_v      3
          inv. 180 deg rotation - cart. axis [0,0,1]             
     s_v'     4
          inv. 180 deg rotation - cart. axis [1,0,0]             

   Cartesian axes

     site n.     atom                  positions (alat units)
         1        C      tau(   1) = (   0.0000000   0.0000000   0.0000000  )
         2        C      tau(   2) = (   0.0000000   0.5783938   0.0000000  )

   Crystallographic axes

     site n.     atom                  positions (cryst. coord.)
         1        C      tau(   1) = (  0.0000000  0.0000000  0.0000000  )
         2        C      tau(   2) = (  0.3339358  0.6678717  0.0000000  )

     number of k points=  3001
                       cart. coord. in units 2pi/alat
        k(    1) = (   0.3333333   0.5773503   0.0000000), wk =   0.0006664
        k(    2) = (   0.3330000   0.5767729   0.0000000), wk =   0.0006664
        k(    3) = (   0.3326667   0.5761956   0.0000000), wk =   0.0006664
        k(    4) = (   0.3323333   0.5756182   0.0000000), wk =   0.0006664
        k(    5) = (   0.3320000   0.5750409   0.0000000), wk =   0.0006664
        k(    6) = (   0.3316667   0.5744635   0.0000000), wk =   0.0006664
        k(    7) = (   0.3313333   0.5738862   0.0000000), wk =   0.0006664
        k(    8) = (   0.3310000   0.5733088   0.0000000), wk =   0.0006664
        k(    9) = (   0.3306667   0.5727315   0.0000000), wk =   0.0006664
        k(   10) = (   0.3303333   0.5721541   0.0000000), wk =   0.0006664
        k(   11) = (   0.3300000   0.5715768   0.0000000), wk =   0.0006664
        k(   12) = (   0.3296667   0.5709994   0.0000000), wk =   0.0006664
        k(   13) = (   0.3293333   0.5704221   0.0000000), wk =   0.0006664
        k(   14) = (   0.3290000   0.5698447   0.0000000), wk =   0.0006664
        k(   15) = (   0.3286667   0.5692674   0.0000000), wk =   0.0006664
        k(   16) = (   0.3283333   0.5686900   0.0000000), wk =   0.0006664
        k(   17) = (   0.3280000   0.5681127   0.0000000), wk =   0.0006664
        k(   18) = (   0.3276667   0.5675353   0.0000000), wk =   0.0006664
        k(   19) = (   0.3273333   0.5669580   0.0000000), wk =   0.0006664
        k(   20) = (   0.3270000   0.5663806   0.0000000), wk =   0.0006664
        k(   21) = (   0.3266667   0.5658033   0.0000000), wk =   0.0006664
        k(   22) = (   0.3263333   0.5652259   0.0000000), wk =   0.0006664
        k(   23) = (   0.3260000   0.5646486   0.0000000), wk =   0.0006664
        k(   24) = (   0.3256667   0.5640712   0.0000000), wk =   0.0006664
        k(   25) = (   0.3253333   0.5634939   0.0000000), wk =   0.0006664
        k(   26) = (   0.3250000   0.5629165   0.0000000), wk =   0.0006664
        k(   27) = (   0.3246667   0.5623392   0.0000000), wk =   0.0006664
        k(   28) = (   0.3243333   0.5617618   0.0000000), wk =   0.0006664
        k(   29) = (   0.3240000   0.5611845   0.0000000), wk =   0.0006664
        k(   30) = (   0.3236667   0.5606071   0.0000000), wk =   0.0006664
        k(   31) = (   0.3233333   0.5600298   0.0000000), wk =   0.0006664
        k(   32) = (   0.3230000   0.5594524   0.0000000), wk =   0.0006664
        k(   33) = (   0.3226667   0.5588751   0.0000000), wk =   0.0006664
        k(   34) = (   0.3223333   0.5582977   0.0000000), wk =   0.0006664
        k(   35) = (   0.3220000   0.5577204   0.0000000), wk =   0.0006664
        k(   36) = (   0.3216667   0.5571430   0.0000000), wk =   0.0006664
        k(   37) = (   0.3213333   0.5565657   0.0000000), wk =   0.0006664
        k(   38) = (   0.3210000   0.5559883   0.0000000), wk =   0.0006664
        k(   39) = (   0.3206667   0.5554110   0.0000000), wk =   0.0006664
        k(   40) = (   0.3203333   0.5548336   0.0000000), wk =   0.0006664
        k(   41) = (   0.3200000   0.5542563   0.0000000), wk =   0.0006664
        k(   42) = (   0.3196667   0.5536789   0.0000000), wk =   0.0006664
        k(   43) = (   0.3193333   0.5531016   0.0000000), wk =   0.0006664
        k(   44) = (   0.3190000   0.5525242   0.0000000), wk =   0.0006664
        k(   45) = (   0.3186667   0.5519469   0.0000000), wk =   0.0006664
        k(   46) = (   0.3183333   0.5513695   0.0000000), wk =   0.0006664
        k(   47) = (   0.3180000   0.5507922   0.0000000), wk =   0.0006664
        k(   48) = (   0.3176667   0.5502148   0.0000000), wk =   0.0006664
        k(   49) = (   0.3173333   0.5496375   0.0000000), wk =   0.0006664
        k(   50) = (   0.3170000   0.5490601   0.0000000), wk =   0.0006664
        k(   51) = (   0.3166667   0.5484828   0.0000000), wk =   0.0006664
        k(   52) = (   0.3163333   0.5479054   0.0000000), wk =   0.0006664
        k(   53) = (   0.3160000   0.5473281   0.0000000), wk =   0.0006664
        k(   54) = (   0.3156667   0.5467507   0.0000000), wk =   0.0006664
        k(   55) = (   0.3153333   0.5461734   0.0000000), wk =   0.0006664
        k(   56) = (   0.3150000   0.5455960   0.0000000), wk =   0.0006664
        k(   57) = (   0.3146667   0.5450187   0.0000000), wk =   0.0006664
        k(   58) = (   0.3143333   0.5444413   0.0000000), wk =   0.0006664
        k(   59) = (   0.3140000   0.5438640   0.0000000), wk =   0.0006664
        k(   60) = (   0.3136667   0.5432866   0.0000000), wk =   0.0006664
        k(   61) = (   0.3133333   0.5427093   0.0000000), wk =   0.0006664
        k(   62) = (   0.3130000   0.5421319   0.0000000), wk =   0.0006664
        k(   63) = (   0.3126667   0.5415546   0.0000000), wk =   0.0006664
        k(   64) = (   0.3123333   0.5409772   0.0000000), wk =   0.0006664
        k(   65) = (   0.3120000   0.5403999   0.0000000), wk =   0.0006664
        k(   66) = (   0.3116667   0.5398225   0.0000000), wk =   0.0006664
        k(   67) = (   0.3113333   0.5392452   0.0000000), wk =   0.0006664
        k(   68) = (   0.3110000   0.5386678   0.0000000), wk =   0.0006664
        k(   69) = (   0.3106667   0.5380905   0.0000000), wk =   0.0006664
        k(   70) = (   0.3103333   0.5375131   0.0000000), wk =   0.0006664
        k(   71) = (   0.3100000   0.5369358   0.0000000), wk =   0.0006664
        k(   72) = (   0.3096667   0.5363584   0.0000000), wk =   0.0006664
        k(   73) = (   0.3093333   0.5357810   0.0000000), wk =   0.0006664
        k(   74) = (   0.3090000   0.5352037   0.0000000), wk =   0.0006664
        k(   75) = (   0.3086667   0.5346263   0.0000000), wk =   0.0006664
        k(   76) = (   0.3083333   0.5340490   0.0000000), wk =   0.0006664
        k(   77) = (   0.3080000   0.5334716   0.0000000), wk =   0.0006664
        k(   78) = (   0.3076667   0.5328943   0.0000000), wk =   0.0006664
        k(   79) = (   0.3073333   0.5323169   0.0000000), wk =   0.0006664
        k(   80) = (   0.3070000   0.5317396   0.0000000), wk =   0.0006664
        k(   81) = (   0.3066667   0.5311622   0.0000000), wk =   0.0006664
        k(   82) = (   0.3063333   0.5305849   0.0000000), wk =   0.0006664
        k(   83) = (   0.3060000   0.5300075   0.0000000), wk =   0.0006664
        k(   84) = (   0.3056667   0.5294302   0.0000000), wk =   0.0006664
        k(   85) = (   0.3053333   0.5288528   0.0000000), wk =   0.0006664
        k(   86) = (   0.3050000   0.5282755   0.0000000), wk =   0.0006664
        k(   87) = (   0.3046667   0.5276981   0.0000000), wk =   0.0006664
        k(   88) = (   0.3043333   0.5271208   0.0000000), wk =   0.0006664
        k(   89) = (   0.3040000   0.5265434   0.0000000), wk =   0.0006664
        k(   90) = (   0.3036667   0.5259661   0.0000000), wk =   0.0006664
        k(   91) = (   0.3033333   0.5253887   0.0000000), wk =   0.0006664
        k(   92) = (   0.3030000   0.5248114   0.0000000), wk =   0.0006664
        k(   93) = (   0.3026667   0.5242340   0.0000000), wk =   0.0006664
        k(   94) = (   0.3023333   0.5236567   0.0000000), wk =   0.0006664
        k(   95) = (   0.3020000   0.5230793   0.0000000), wk =   0.0006664
        k(   96) = (   0.3016667   0.5225020   0.0000000), wk =   0.0006664
        k(   97) = (   0.3013333   0.5219246   0.0000000), wk =   0.0006664
        k(   98) = (   0.3010000   0.5213473   0.0000000), wk =   0.0006664
        k(   99) = (   0.3006667   0.5207699   0.0000000), wk =   0.0006664
        k(  100) = (   0.3003333   0.5201926   0.0000000), wk =   0.0006664
        k(  101) = (   0.3000000   0.5196152   0.0000000), wk =   0.0006664
        k(  102) = (   0.2996667   0.5190379   0.0000000), wk =   0.0006664
        k(  103) = (   0.2993333   0.5184605   0.0000000), wk =   0.0006664
        k(  104) = (   0.2990000   0.5178832   0.0000000), wk =   0.0006664
        k(  105) = (   0.2986667   0.5173058   0.0000000), wk =   0.0006664
        k(  106) = (   0.2983333   0.5167285   0.0000000), wk =   0.0006664
        k(  107) = (   0.2980000   0.5161511   0.0000000), wk =   0.0006664
        k(  108) = (   0.2976667   0.5155738   0.0000000), wk =   0.0006664
        k(  109) = (   0.2973333   0.5149964   0.0000000), wk =   0.0006664
        k(  110) = (   0.2970000   0.5144191   0.0000000), wk =   0.0006664
        k(  111) = (   0.2966667   0.5138417   0.0000000), wk =   0.0006664
        k(  112) = (   0.2963333   0.5132644   0.0000000), wk =   0.0006664
        k(  113) = (   0.2960000   0.5126870   0.0000000), wk =   0.0006664
        k(  114) = (   0.2956667   0.5121097   0.0000000), wk =   0.0006664
        k(  115) = (   0.2953333   0.5115323   0.0000000), wk =   0.0006664
        k(  116) = (   0.2950000   0.5109550   0.0000000), wk =   0.0006664
        k(  117) = (   0.2946667   0.5103776   0.0000000), wk =   0.0006664
        k(  118) = (   0.2943333   0.5098003   0.0000000), wk =   0.0006664
        k(  119) = (   0.2940000   0.5092229   0.0000000), wk =   0.0006664
        k(  120) = (   0.2936667   0.5086456   0.0000000), wk =   0.0006664
        k(  121) = (   0.2933333   0.5080682   0.0000000), wk =   0.0006664
        k(  122) = (   0.2930000   0.5074909   0.0000000), wk =   0.0006664
        k(  123) = (   0.2926667   0.5069135   0.0000000), wk =   0.0006664
        k(  124) = (   0.2923333   0.5063362   0.0000000), wk =   0.0006664
        k(  125) = (   0.2920000   0.5057588   0.0000000), wk =   0.0006664
        k(  126) = (   0.2916667   0.5051815   0.0000000), wk =   0.0006664
        k(  127) = (   0.2913333   0.5046041   0.0000000), wk =   0.0006664
        k(  128) = (   0.2910000   0.5040268   0.0000000), wk =   0.0006664
        k(  129) = (   0.2906667   0.5034494   0.0000000), wk =   0.0006664
        k(  130) = (   0.2903333   0.5028721   0.0000000), wk =   0.0006664
        k(  131) = (   0.2900000   0.5022947   0.0000000), wk =   0.0006664
        k(  132) = (   0.2896667   0.5017174   0.0000000), wk =   0.0006664
        k(  133) = (   0.2893333   0.5011400   0.0000000), wk =   0.0006664
        k(  134) = (   0.2890000   0.5005627   0.0000000), wk =   0.0006664
        k(  135) = (   0.2886667   0.4999853   0.0000000), wk =   0.0006664
        k(  136) = (   0.2883333   0.4994080   0.0000000), wk =   0.0006664
        k(  137) = (   0.2880000   0.4988306   0.0000000), wk =   0.0006664
        k(  138) = (   0.2876667   0.4982533   0.0000000), wk =   0.0006664
        k(  139) = (   0.2873333   0.4976759   0.0000000), wk =   0.0006664
        k(  140) = (   0.2870000   0.4970986   0.0000000), wk =   0.0006664
        k(  141) = (   0.2866667   0.4965212   0.0000000), wk =   0.0006664
        k(  142) = (   0.2863333   0.4959439   0.0000000), wk =   0.0006664
        k(  143) = (   0.2860000   0.4953665   0.0000000), wk =   0.0006664
        k(  144) = (   0.2856667   0.4947892   0.0000000), wk =   0.0006664
        k(  145) = (   0.2853333   0.4942118   0.0000000), wk =   0.0006664
        k(  146) = (   0.2850000   0.4936345   0.0000000), wk =   0.0006664
        k(  147) = (   0.2846667   0.4930571   0.0000000), wk =   0.0006664
        k(  148) = (   0.2843333   0.4924798   0.0000000), wk =   0.0006664
        k(  149) = (   0.2840000   0.4919024   0.0000000), wk =   0.0006664
        k(  150) = (   0.2836667   0.4913251   0.0000000), wk =   0.0006664
        k(  151) = (   0.2833333   0.4907477   0.0000000), wk =   0.0006664
        k(  152) = (   0.2830000   0.4901704   0.0000000), wk =   0.0006664
        k(  153) = (   0.2826667   0.4895930   0.0000000), wk =   0.0006664
        k(  154) = (   0.2823333   0.4890157   0.0000000), wk =   0.0006664
        k(  155) = (   0.2820000   0.4884383   0.0000000), wk =   0.0006664
        k(  156) = (   0.2816667   0.4878610   0.0000000), wk =   0.0006664
        k(  157) = (   0.2813333   0.4872836   0.0000000), wk =   0.0006664
        k(  158) = (   0.2810000   0.4867063   0.0000000), wk =   0.0006664
        k(  159) = (   0.2806667   0.4861289   0.0000000), wk =   0.0006664
        k(  160) = (   0.2803333   0.4855516   0.0000000), wk =   0.0006664
        k(  161) = (   0.2800000   0.4849742   0.0000000), wk =   0.0006664
        k(  162) = (   0.2796667   0.4843969   0.0000000), wk =   0.0006664
        k(  163) = (   0.2793333   0.4838195   0.0000000), wk =   0.0006664
        k(  164) = (   0.2790000   0.4832422   0.0000000), wk =   0.0006664
        k(  165) = (   0.2786667   0.4826648   0.0000000), wk =   0.0006664
        k(  166) = (   0.2783333   0.4820875   0.0000000), wk =   0.0006664
        k(  167) = (   0.2780000   0.4815101   0.0000000), wk =   0.0006664
        k(  168) = (   0.2776667   0.4809328   0.0000000), wk =   0.0006664
        k(  169) = (   0.2773333   0.4803554   0.0000000), wk =   0.0006664
        k(  170) = (   0.2770000   0.4797781   0.0000000), wk =   0.0006664
        k(  171) = (   0.2766667   0.4792007   0.0000000), wk =   0.0006664
        k(  172) = (   0.2763333   0.4786234   0.0000000), wk =   0.0006664
        k(  173) = (   0.2760000   0.4780460   0.0000000), wk =   0.0006664
        k(  174) = (   0.2756667   0.4774687   0.0000000), wk =   0.0006664
        k(  175) = (   0.2753333   0.4768913   0.0000000), wk =   0.0006664
        k(  176) = (   0.2750000   0.4763140   0.0000000), wk =   0.0006664
        k(  177) = (   0.2746667   0.4757366   0.0000000), wk =   0.0006664
        k(  178) = (   0.2743333   0.4751593   0.0000000), wk =   0.0006664
        k(  179) = (   0.2740000   0.4745819   0.0000000), wk =   0.0006664
        k(  180) = (   0.2736667   0.4740046   0.0000000), wk =   0.0006664
        k(  181) = (   0.2733333   0.4734272   0.0000000), wk =   0.0006664
        k(  182) = (   0.2730000   0.4728499   0.0000000), wk =   0.0006664
        k(  183) = (   0.2726667   0.4722725   0.0000000), wk =   0.0006664
        k(  184) = (   0.2723333   0.4716952   0.0000000), wk =   0.0006664
        k(  185) = (   0.2720000   0.4711178   0.0000000), wk =   0.0006664
        k(  186) = (   0.2716667   0.4705405   0.0000000), wk =   0.0006664
        k(  187) = (   0.2713333   0.4699631   0.0000000), wk =   0.0006664
        k(  188) = (   0.2710000   0.4693858   0.0000000), wk =   0.0006664
        k(  189) = (   0.2706667   0.4688084   0.0000000), wk =   0.0006664
        k(  190) = (   0.2703333   0.4682311   0.0000000), wk =   0.0006664
        k(  191) = (   0.2700000   0.4676537   0.0000000), wk =   0.0006664
        k(  192) = (   0.2696667   0.4670764   0.0000000), wk =   0.0006664
        k(  193) = (   0.2693333   0.4664990   0.0000000), wk =   0.0006664
        k(  194) = (   0.2690000   0.4659217   0.0000000), wk =   0.0006664
        k(  195) = (   0.2686667   0.4653443   0.0000000), wk =   0.0006664
        k(  196) = (   0.2683333   0.4647670   0.0000000), wk =   0.0006664
        k(  197) = (   0.2680000   0.4641896   0.0000000), wk =   0.0006664
        k(  198) = (   0.2676667   0.4636123   0.0000000), wk =   0.0006664
        k(  199) = (   0.2673333   0.4630349   0.0000000), wk =   0.0006664
        k(  200) = (   0.2670000   0.4624576   0.0000000), wk =   0.0006664
        k(  201) = (   0.2666667   0.4618802   0.0000000), wk =   0.0006664
        k(  202) = (   0.2663333   0.4613029   0.0000000), wk =   0.0006664
        k(  203) = (   0.2660000   0.4607255   0.0000000), wk =   0.0006664
        k(  204) = (   0.2656667   0.4601482   0.0000000), wk =   0.0006664
        k(  205) = (   0.2653333   0.4595708   0.0000000), wk =   0.0006664
        k(  206) = (   0.2650000   0.4589935   0.0000000), wk =   0.0006664
        k(  207) = (   0.2646667   0.4584161   0.0000000), wk =   0.0006664
        k(  208) = (   0.2643333   0.4578388   0.0000000), wk =   0.0006664
        k(  209) = (   0.2640000   0.4572614   0.0000000), wk =   0.0006664
        k(  210) = (   0.2636667   0.4566841   0.0000000), wk =   0.0006664
        k(  211) = (   0.2633333   0.4561067   0.0000000), wk =   0.0006664
        k(  212) = (   0.2630000   0.4555294   0.0000000), wk =   0.0006664
        k(  213) = (   0.2626667   0.4549520   0.0000000), wk =   0.0006664
        k(  214) = (   0.2623333   0.4543747   0.0000000), wk =   0.0006664
        k(  215) = (   0.2620000   0.4537973   0.0000000), wk =   0.0006664
        k(  216) = (   0.2616667   0.4532200   0.0000000), wk =   0.0006664
        k(  217) = (   0.2613333   0.4526426   0.0000000), wk =   0.0006664
        k(  218) = (   0.2610000   0.4520653   0.0000000), wk =   0.0006664
        k(  219) = (   0.2606667   0.4514879   0.0000000), wk =   0.0006664
        k(  220) = (   0.2603333   0.4509106   0.0000000), wk =   0.0006664
        k(  221) = (   0.2600000   0.4503332   0.0000000), wk =   0.0006664
        k(  222) = (   0.2596667   0.4497559   0.0000000), wk =   0.0006664
        k(  223) = (   0.2593333   0.4491785   0.0000000), wk =   0.0006664
        k(  224) = (   0.2590000   0.4486012   0.0000000), wk =   0.0006664
        k(  225) = (   0.2586667   0.4480238   0.0000000), wk =   0.0006664
        k(  226) = (   0.2583333   0.4474465   0.0000000), wk =   0.0006664
        k(  227) = (   0.2580000   0.4468691   0.0000000), wk =   0.0006664
        k(  228) = (   0.2576667   0.4462918   0.0000000), wk =   0.0006664
        k(  229) = (   0.2573333   0.4457144   0.0000000), wk =   0.0006664
        k(  230) = (   0.2570000   0.4451371   0.0000000), wk =   0.0006664
        k(  231) = (   0.2566667   0.4445597   0.0000000), wk =   0.0006664
        k(  232) = (   0.2563333   0.4439824   0.0000000), wk =   0.0006664
        k(  233) = (   0.2560000   0.4434050   0.0000000), wk =   0.0006664
        k(  234) = (   0.2556667   0.4428277   0.0000000), wk =   0.0006664
        k(  235) = (   0.2553333   0.4422503   0.0000000), wk =   0.0006664
        k(  236) = (   0.2550000   0.4416730   0.0000000), wk =   0.0006664
        k(  237) = (   0.2546667   0.4410956   0.0000000), wk =   0.0006664
        k(  238) = (   0.2543333   0.4405183   0.0000000), wk =   0.0006664
        k(  239) = (   0.2540000   0.4399409   0.0000000), wk =   0.0006664
        k(  240) = (   0.2536667   0.4393636   0.0000000), wk =   0.0006664
        k(  241) = (   0.2533333   0.4387862   0.0000000), wk =   0.0006664
        k(  242) = (   0.2530000   0.4382089   0.0000000), wk =   0.0006664
        k(  243) = (   0.2526667   0.4376315   0.0000000), wk =   0.0006664
        k(  244) = (   0.2523333   0.4370542   0.0000000), wk =   0.0006664
        k(  245) = (   0.2520000   0.4364768   0.0000000), wk =   0.0006664
        k(  246) = (   0.2516667   0.4358995   0.0000000), wk =   0.0006664
        k(  247) = (   0.2513333   0.4353221   0.0000000), wk =   0.0006664
        k(  248) = (   0.2510000   0.4347448   0.0000000), wk =   0.0006664
        k(  249) = (   0.2506667   0.4341674   0.0000000), wk =   0.0006664
        k(  250) = (   0.2503333   0.4335901   0.0000000), wk =   0.0006664
        k(  251) = (   0.2500000   0.4330127   0.0000000), wk =   0.0006664
        k(  252) = (   0.2496667   0.4324354   0.0000000), wk =   0.0006664
        k(  253) = (   0.2493333   0.4318580   0.0000000), wk =   0.0006664
        k(  254) = (   0.2490000   0.4312807   0.0000000), wk =   0.0006664
        k(  255) = (   0.2486667   0.4307033   0.0000000), wk =   0.0006664
        k(  256) = (   0.2483333   0.4301260   0.0000000), wk =   0.0006664
        k(  257) = (   0.2480000   0.4295486   0.0000000), wk =   0.0006664
        k(  258) = (   0.2476667   0.4289712   0.0000000), wk =   0.0006664
        k(  259) = (   0.2473333   0.4283939   0.0000000), wk =   0.0006664
        k(  260) = (   0.2470000   0.4278165   0.0000000), wk =   0.0006664
        k(  261) = (   0.2466667   0.4272392   0.0000000), wk =   0.0006664
        k(  262) = (   0.2463333   0.4266618   0.0000000), wk =   0.0006664
        k(  263) = (   0.2460000   0.4260845   0.0000000), wk =   0.0006664
        k(  264) = (   0.2456667   0.4255071   0.0000000), wk =   0.0006664
        k(  265) = (   0.2453333   0.4249298   0.0000000), wk =   0.0006664
        k(  266) = (   0.2450000   0.4243524   0.0000000), wk =   0.0006664
        k(  267) = (   0.2446667   0.4237751   0.0000000), wk =   0.0006664
        k(  268) = (   0.2443333   0.4231977   0.0000000), wk =   0.0006664
        k(  269) = (   0.2440000   0.4226204   0.0000000), wk =   0.0006664
        k(  270) = (   0.2436667   0.4220430   0.0000000), wk =   0.0006664
        k(  271) = (   0.2433333   0.4214657   0.0000000), wk =   0.0006664
        k(  272) = (   0.2430000   0.4208883   0.0000000), wk =   0.0006664
        k(  273) = (   0.2426667   0.4203110   0.0000000), wk =   0.0006664
        k(  274) = (   0.2423333   0.4197336   0.0000000), wk =   0.0006664
        k(  275) = (   0.2420000   0.4191563   0.0000000), wk =   0.0006664
        k(  276) = (   0.2416667   0.4185789   0.0000000), wk =   0.0006664
        k(  277) = (   0.2413333   0.4180016   0.0000000), wk =   0.0006664
        k(  278) = (   0.2410000   0.4174242   0.0000000), wk =   0.0006664
        k(  279) = (   0.2406667   0.4168469   0.0000000), wk =   0.0006664
        k(  280) = (   0.2403333   0.4162695   0.0000000), wk =   0.0006664
        k(  281) = (   0.2400000   0.4156922   0.0000000), wk =   0.0006664
        k(  282) = (   0.2396667   0.4151148   0.0000000), wk =   0.0006664
        k(  283) = (   0.2393333   0.4145375   0.0000000), wk =   0.0006664
        k(  284) = (   0.2390000   0.4139601   0.0000000), wk =   0.0006664
        k(  285) = (   0.2386667   0.4133828   0.0000000), wk =   0.0006664
        k(  286) = (   0.2383333   0.4128054   0.0000000), wk =   0.0006664
        k(  287) = (   0.2380000   0.4122281   0.0000000), wk =   0.0006664
        k(  288) = (   0.2376667   0.4116507   0.0000000), wk =   0.0006664
        k(  289) = (   0.2373333   0.4110734   0.0000000), wk =   0.0006664
        k(  290) = (   0.2370000   0.4104960   0.0000000), wk =   0.0006664
        k(  291) = (   0.2366667   0.4099187   0.0000000), wk =   0.0006664
        k(  292) = (   0.2363333   0.4093413   0.0000000), wk =   0.0006664
        k(  293) = (   0.2360000   0.4087640   0.0000000), wk =   0.0006664
        k(  294) = (   0.2356667   0.4081866   0.0000000), wk =   0.0006664
        k(  295) = (   0.2353333   0.4076093   0.0000000), wk =   0.0006664
        k(  296) = (   0.2350000   0.4070319   0.0000000), wk =   0.0006664
        k(  297) = (   0.2346667   0.4064546   0.0000000), wk =   0.0006664
        k(  298) = (   0.2343333   0.4058772   0.0000000), wk =   0.0006664
        k(  299) = (   0.2340000   0.4052999   0.0000000), wk =   0.0006664
        k(  300) = (   0.2336667   0.4047225   0.0000000), wk =   0.0006664
        k(  301) = (   0.2333333   0.4041452   0.0000000), wk =   0.0006664
        k(  302) = (   0.2330000   0.4035678   0.0000000), wk =   0.0006664
        k(  303) = (   0.2326667   0.4029905   0.0000000), wk =   0.0006664
        k(  304) = (   0.2323333   0.4024131   0.0000000), wk =   0.0006664
        k(  305) = (   0.2320000   0.4018358   0.0000000), wk =   0.0006664
        k(  306) = (   0.2316667   0.4012584   0.0000000), wk =   0.0006664
        k(  307) = (   0.2313333   0.4006811   0.0000000), wk =   0.0006664
        k(  308) = (   0.2310000   0.4001037   0.0000000), wk =   0.0006664
        k(  309) = (   0.2306667   0.3995264   0.0000000), wk =   0.0006664
        k(  310) = (   0.2303333   0.3989490   0.0000000), wk =   0.0006664
        k(  311) = (   0.2300000   0.3983717   0.0000000), wk =   0.0006664
        k(  312) = (   0.2296667   0.3977943   0.0000000), wk =   0.0006664
        k(  313) = (   0.2293333   0.3972170   0.0000000), wk =   0.0006664
        k(  314) = (   0.2290000   0.3966396   0.0000000), wk =   0.0006664
        k(  315) = (   0.2286667   0.3960623   0.0000000), wk =   0.0006664
        k(  316) = (   0.2283333   0.3954849   0.0000000), wk =   0.0006664
        k(  317) = (   0.2280000   0.3949076   0.0000000), wk =   0.0006664
        k(  318) = (   0.2276667   0.3943302   0.0000000), wk =   0.0006664
        k(  319) = (   0.2273333   0.3937529   0.0000000), wk =   0.0006664
        k(  320) = (   0.2270000   0.3931755   0.0000000), wk =   0.0006664
        k(  321) = (   0.2266667   0.3925982   0.0000000), wk =   0.0006664
        k(  322) = (   0.2263333   0.3920208   0.0000000), wk =   0.0006664
        k(  323) = (   0.2260000   0.3914435   0.0000000), wk =   0.0006664
        k(  324) = (   0.2256667   0.3908661   0.0000000), wk =   0.0006664
        k(  325) = (   0.2253333   0.3902888   0.0000000), wk =   0.0006664
        k(  326) = (   0.2250000   0.3897114   0.0000000), wk =   0.0006664
        k(  327) = (   0.2246667   0.3891341   0.0000000), wk =   0.0006664
        k(  328) = (   0.2243333   0.3885567   0.0000000), wk =   0.0006664
        k(  329) = (   0.2240000   0.3879794   0.0000000), wk =   0.0006664
        k(  330) = (   0.2236667   0.3874020   0.0000000), wk =   0.0006664
        k(  331) = (   0.2233333   0.3868247   0.0000000), wk =   0.0006664
        k(  332) = (   0.2230000   0.3862473   0.0000000), wk =   0.0006664
        k(  333) = (   0.2226667   0.3856700   0.0000000), wk =   0.0006664
        k(  334) = (   0.2223333   0.3850926   0.0000000), wk =   0.0006664
        k(  335) = (   0.2220000   0.3845153   0.0000000), wk =   0.0006664
        k(  336) = (   0.2216667   0.3839379   0.0000000), wk =   0.0006664
        k(  337) = (   0.2213333   0.3833606   0.0000000), wk =   0.0006664
        k(  338) = (   0.2210000   0.3827832   0.0000000), wk =   0.0006664
        k(  339) = (   0.2206667   0.3822059   0.0000000), wk =   0.0006664
        k(  340) = (   0.2203333   0.3816285   0.0000000), wk =   0.0006664
        k(  341) = (   0.2200000   0.3810512   0.0000000), wk =   0.0006664
        k(  342) = (   0.2196667   0.3804738   0.0000000), wk =   0.0006664
        k(  343) = (   0.2193333   0.3798965   0.0000000), wk =   0.0006664
        k(  344) = (   0.2190000   0.3793191   0.0000000), wk =   0.0006664
        k(  345) = (   0.2186667   0.3787418   0.0000000), wk =   0.0006664
        k(  346) = (   0.2183333   0.3781644   0.0000000), wk =   0.0006664
        k(  347) = (   0.2180000   0.3775871   0.0000000), wk =   0.0006664
        k(  348) = (   0.2176667   0.3770097   0.0000000), wk =   0.0006664
        k(  349) = (   0.2173333   0.3764324   0.0000000), wk =   0.0006664
        k(  350) = (   0.2170000   0.3758550   0.0000000), wk =   0.0006664
        k(  351) = (   0.2166667   0.3752777   0.0000000), wk =   0.0006664
        k(  352) = (   0.2163333   0.3747003   0.0000000), wk =   0.0006664
        k(  353) = (   0.2160000   0.3741230   0.0000000), wk =   0.0006664
        k(  354) = (   0.2156667   0.3735456   0.0000000), wk =   0.0006664
        k(  355) = (   0.2153333   0.3729683   0.0000000), wk =   0.0006664
        k(  356) = (   0.2150000   0.3723909   0.0000000), wk =   0.0006664
        k(  357) = (   0.2146667   0.3718136   0.0000000), wk =   0.0006664
        k(  358) = (   0.2143333   0.3712362   0.0000000), wk =   0.0006664
        k(  359) = (   0.2140000   0.3706589   0.0000000), wk =   0.0006664
        k(  360) = (   0.2136667   0.3700815   0.0000000), wk =   0.0006664
        k(  361) = (   0.2133333   0.3695042   0.0000000), wk =   0.0006664
        k(  362) = (   0.2130000   0.3689268   0.0000000), wk =   0.0006664
        k(  363) = (   0.2126667   0.3683495   0.0000000), wk =   0.0006664
        k(  364) = (   0.2123333   0.3677721   0.0000000), wk =   0.0006664
        k(  365) = (   0.2120000   0.3671948   0.0000000), wk =   0.0006664
        k(  366) = (   0.2116667   0.3666174   0.0000000), wk =   0.0006664
        k(  367) = (   0.2113333   0.3660401   0.0000000), wk =   0.0006664
        k(  368) = (   0.2110000   0.3654627   0.0000000), wk =   0.0006664
        k(  369) = (   0.2106667   0.3648854   0.0000000), wk =   0.0006664
        k(  370) = (   0.2103333   0.3643080   0.0000000), wk =   0.0006664
        k(  371) = (   0.2100000   0.3637307   0.0000000), wk =   0.0006664
        k(  372) = (   0.2096667   0.3631533   0.0000000), wk =   0.0006664
        k(  373) = (   0.2093333   0.3625760   0.0000000), wk =   0.0006664
        k(  374) = (   0.2090000   0.3619986   0.0000000), wk =   0.0006664
        k(  375) = (   0.2086667   0.3614213   0.0000000), wk =   0.0006664
        k(  376) = (   0.2083333   0.3608439   0.0000000), wk =   0.0006664
        k(  377) = (   0.2080000   0.3602666   0.0000000), wk =   0.0006664
        k(  378) = (   0.2076667   0.3596892   0.0000000), wk =   0.0006664
        k(  379) = (   0.2073333   0.3591119   0.0000000), wk =   0.0006664
        k(  380) = (   0.2070000   0.3585345   0.0000000), wk =   0.0006664
        k(  381) = (   0.2066667   0.3579572   0.0000000), wk =   0.0006664
        k(  382) = (   0.2063333   0.3573798   0.0000000), wk =   0.0006664
        k(  383) = (   0.2060000   0.3568025   0.0000000), wk =   0.0006664
        k(  384) = (   0.2056667   0.3562251   0.0000000), wk =   0.0006664
        k(  385) = (   0.2053333   0.3556478   0.0000000), wk =   0.0006664
        k(  386) = (   0.2050000   0.3550704   0.0000000), wk =   0.0006664
        k(  387) = (   0.2046667   0.3544931   0.0000000), wk =   0.0006664
        k(  388) = (   0.2043333   0.3539157   0.0000000), wk =   0.0006664
        k(  389) = (   0.2040000   0.3533384   0.0000000), wk =   0.0006664
        k(  390) = (   0.2036667   0.3527610   0.0000000), wk =   0.0006664
        k(  391) = (   0.2033333   0.3521837   0.0000000), wk =   0.0006664
        k(  392) = (   0.2030000   0.3516063   0.0000000), wk =   0.0006664
        k(  393) = (   0.2026667   0.3510290   0.0000000), wk =   0.0006664
        k(  394) = (   0.2023333   0.3504516   0.0000000), wk =   0.0006664
        k(  395) = (   0.2020000   0.3498743   0.0000000), wk =   0.0006664
        k(  396) = (   0.2016667   0.3492969   0.0000000), wk =   0.0006664
        k(  397) = (   0.2013333   0.3487196   0.0000000), wk =   0.0006664
        k(  398) = (   0.2010000   0.3481422   0.0000000), wk =   0.0006664
        k(  399) = (   0.2006667   0.3475649   0.0000000), wk =   0.0006664
        k(  400) = (   0.2003333   0.3469875   0.0000000), wk =   0.0006664
        k(  401) = (   0.2000000   0.3464102   0.0000000), wk =   0.0006664
        k(  402) = (   0.1996667   0.3458328   0.0000000), wk =   0.0006664
        k(  403) = (   0.1993333   0.3452555   0.0000000), wk =   0.0006664
        k(  404) = (   0.1990000   0.3446781   0.0000000), wk =   0.0006664
        k(  405) = (   0.1986667   0.3441008   0.0000000), wk =   0.0006664
        k(  406) = (   0.1983333   0.3435234   0.0000000), wk =   0.0006664
        k(  407) = (   0.1980000   0.3429461   0.0000000), wk =   0.0006664
        k(  408) = (   0.1976667   0.3423687   0.0000000), wk =   0.0006664
        k(  409) = (   0.1973333   0.3417914   0.0000000), wk =   0.0006664
        k(  410) = (   0.1970000   0.3412140   0.0000000), wk =   0.0006664
        k(  411) = (   0.1966667   0.3406367   0.0000000), wk =   0.0006664
        k(  412) = (   0.1963333   0.3400593   0.0000000), wk =   0.0006664
        k(  413) = (   0.1960000   0.3394820   0.0000000), wk =   0.0006664
        k(  414) = (   0.1956667   0.3389046   0.0000000), wk =   0.0006664
        k(  415) = (   0.1953333   0.3383273   0.0000000), wk =   0.0006664
        k(  416) = (   0.1950000   0.3377499   0.0000000), wk =   0.0006664
        k(  417) = (   0.1946667   0.3371726   0.0000000), wk =   0.0006664
        k(  418) = (   0.1943333   0.3365952   0.0000000), wk =   0.0006664
        k(  419) = (   0.1940000   0.3360179   0.0000000), wk =   0.0006664
        k(  420) = (   0.1936667   0.3354405   0.0000000), wk =   0.0006664
        k(  421) = (   0.1933333   0.3348632   0.0000000), wk =   0.0006664
        k(  422) = (   0.1930000   0.3342858   0.0000000), wk =   0.0006664
        k(  423) = (   0.1926667   0.3337085   0.0000000), wk =   0.0006664
        k(  424) = (   0.1923333   0.3331311   0.0000000), wk =   0.0006664
        k(  425) = (   0.1920000   0.3325538   0.0000000), wk =   0.0006664
        k(  426) = (   0.1916667   0.3319764   0.0000000), wk =   0.0006664
        k(  427) = (   0.1913333   0.3313991   0.0000000), wk =   0.0006664
        k(  428) = (   0.1910000   0.3308217   0.0000000), wk =   0.0006664
        k(  429) = (   0.1906667   0.3302444   0.0000000), wk =   0.0006664
        k(  430) = (   0.1903333   0.3296670   0.0000000), wk =   0.0006664
        k(  431) = (   0.1900000   0.3290897   0.0000000), wk =   0.0006664
        k(  432) = (   0.1896667   0.3285123   0.0000000), wk =   0.0006664
        k(  433) = (   0.1893333   0.3279350   0.0000000), wk =   0.0006664
        k(  434) = (   0.1890000   0.3273576   0.0000000), wk =   0.0006664
        k(  435) = (   0.1886667   0.3267803   0.0000000), wk =   0.0006664
        k(  436) = (   0.1883333   0.3262029   0.0000000), wk =   0.0006664
        k(  437) = (   0.1880000   0.3256256   0.0000000), wk =   0.0006664
        k(  438) = (   0.1876667   0.3250482   0.0000000), wk =   0.0006664
        k(  439) = (   0.1873333   0.3244709   0.0000000), wk =   0.0006664
        k(  440) = (   0.1870000   0.3238935   0.0000000), wk =   0.0006664
        k(  441) = (   0.1866667   0.3233162   0.0000000), wk =   0.0006664
        k(  442) = (   0.1863333   0.3227388   0.0000000), wk =   0.0006664
        k(  443) = (   0.1860000   0.3221615   0.0000000), wk =   0.0006664
        k(  444) = (   0.1856667   0.3215841   0.0000000), wk =   0.0006664
        k(  445) = (   0.1853333   0.3210067   0.0000000), wk =   0.0006664
        k(  446) = (   0.1850000   0.3204294   0.0000000), wk =   0.0006664
        k(  447) = (   0.1846667   0.3198520   0.0000000), wk =   0.0006664
        k(  448) = (   0.1843333   0.3192747   0.0000000), wk =   0.0006664
        k(  449) = (   0.1840000   0.3186973   0.0000000), wk =   0.0006664
        k(  450) = (   0.1836667   0.3181200   0.0000000), wk =   0.0006664
        k(  451) = (   0.1833333   0.3175426   0.0000000), wk =   0.0006664
        k(  452) = (   0.1830000   0.3169653   0.0000000), wk =   0.0006664
        k(  453) = (   0.1826667   0.3163879   0.0000000), wk =   0.0006664
        k(  454) = (   0.1823333   0.3158106   0.0000000), wk =   0.0006664
        k(  455) = (   0.1820000   0.3152332   0.0000000), wk =   0.0006664
        k(  456) = (   0.1816667   0.3146559   0.0000000), wk =   0.0006664
        k(  457) = (   0.1813333   0.3140785   0.0000000), wk =   0.0006664
        k(  458) = (   0.1810000   0.3135012   0.0000000), wk =   0.0006664
        k(  459) = (   0.1806667   0.3129238   0.0000000), wk =   0.0006664
        k(  460) = (   0.1803333   0.3123465   0.0000000), wk =   0.0006664
        k(  461) = (   0.1800000   0.3117691   0.0000000), wk =   0.0006664
        k(  462) = (   0.1796667   0.3111918   0.0000000), wk =   0.0006664
        k(  463) = (   0.1793333   0.3106144   0.0000000), wk =   0.0006664
        k(  464) = (   0.1790000   0.3100371   0.0000000), wk =   0.0006664
        k(  465) = (   0.1786667   0.3094597   0.0000000), wk =   0.0006664
        k(  466) = (   0.1783333   0.3088824   0.0000000), wk =   0.0006664
        k(  467) = (   0.1780000   0.3083050   0.0000000), wk =   0.0006664
        k(  468) = (   0.1776667   0.3077277   0.0000000), wk =   0.0006664
        k(  469) = (   0.1773333   0.3071503   0.0000000), wk =   0.0006664
        k(  470) = (   0.1770000   0.3065730   0.0000000), wk =   0.0006664
        k(  471) = (   0.1766667   0.3059956   0.0000000), wk =   0.0006664
        k(  472) = (   0.1763333   0.3054183   0.0000000), wk =   0.0006664
        k(  473) = (   0.1760000   0.3048409   0.0000000), wk =   0.0006664
        k(  474) = (   0.1756667   0.3042636   0.0000000), wk =   0.0006664
        k(  475) = (   0.1753333   0.3036862   0.0000000), wk =   0.0006664
        k(  476) = (   0.1750000   0.3031089   0.0000000), wk =   0.0006664
        k(  477) = (   0.1746667   0.3025315   0.0000000), wk =   0.0006664
        k(  478) = (   0.1743333   0.3019542   0.0000000), wk =   0.0006664
        k(  479) = (   0.1740000   0.3013768   0.0000000), wk =   0.0006664
        k(  480) = (   0.1736667   0.3007995   0.0000000), wk =   0.0006664
        k(  481) = (   0.1733333   0.3002221   0.0000000), wk =   0.0006664
        k(  482) = (   0.1730000   0.2996448   0.0000000), wk =   0.0006664
        k(  483) = (   0.1726667   0.2990674   0.0000000), wk =   0.0006664
        k(  484) = (   0.1723333   0.2984901   0.0000000), wk =   0.0006664
        k(  485) = (   0.1720000   0.2979127   0.0000000), wk =   0.0006664
        k(  486) = (   0.1716667   0.2973354   0.0000000), wk =   0.0006664
        k(  487) = (   0.1713333   0.2967580   0.0000000), wk =   0.0006664
        k(  488) = (   0.1710000   0.2961807   0.0000000), wk =   0.0006664
        k(  489) = (   0.1706667   0.2956033   0.0000000), wk =   0.0006664
        k(  490) = (   0.1703333   0.2950260   0.0000000), wk =   0.0006664
        k(  491) = (   0.1700000   0.2944486   0.0000000), wk =   0.0006664
        k(  492) = (   0.1696667   0.2938713   0.0000000), wk =   0.0006664
        k(  493) = (   0.1693333   0.2932939   0.0000000), wk =   0.0006664
        k(  494) = (   0.1690000   0.2927166   0.0000000), wk =   0.0006664
        k(  495) = (   0.1686667   0.2921392   0.0000000), wk =   0.0006664
        k(  496) = (   0.1683333   0.2915619   0.0000000), wk =   0.0006664
        k(  497) = (   0.1680000   0.2909845   0.0000000), wk =   0.0006664
        k(  498) = (   0.1676667   0.2904072   0.0000000), wk =   0.0006664
        k(  499) = (   0.1673333   0.2898298   0.0000000), wk =   0.0006664
        k(  500) = (   0.1670000   0.2892525   0.0000000), wk =   0.0006664
        k(  501) = (   0.1666667   0.2886751   0.0000000), wk =   0.0006664
        k(  502) = (   0.1663333   0.2880978   0.0000000), wk =   0.0006664
        k(  503) = (   0.1660000   0.2875204   0.0000000), wk =   0.0006664
        k(  504) = (   0.1656667   0.2869431   0.0000000), wk =   0.0006664
        k(  505) = (   0.1653333   0.2863657   0.0000000), wk =   0.0006664
        k(  506) = (   0.1650000   0.2857884   0.0000000), wk =   0.0006664
        k(  507) = (   0.1646667   0.2852110   0.0000000), wk =   0.0006664
        k(  508) = (   0.1643333   0.2846337   0.0000000), wk =   0.0006664
        k(  509) = (   0.1640000   0.2840563   0.0000000), wk =   0.0006664
        k(  510) = (   0.1636667   0.2834790   0.0000000), wk =   0.0006664
        k(  511) = (   0.1633333   0.2829016   0.0000000), wk =   0.0006664
        k(  512) = (   0.1630000   0.2823243   0.0000000), wk =   0.0006664
        k(  513) = (   0.1626667   0.2817469   0.0000000), wk =   0.0006664
        k(  514) = (   0.1623333   0.2811696   0.0000000), wk =   0.0006664
        k(  515) = (   0.1620000   0.2805922   0.0000000), wk =   0.0006664
        k(  516) = (   0.1616667   0.2800149   0.0000000), wk =   0.0006664
        k(  517) = (   0.1613333   0.2794375   0.0000000), wk =   0.0006664
        k(  518) = (   0.1610000   0.2788602   0.0000000), wk =   0.0006664
        k(  519) = (   0.1606667   0.2782828   0.0000000), wk =   0.0006664
        k(  520) = (   0.1603333   0.2777055   0.0000000), wk =   0.0006664
        k(  521) = (   0.1600000   0.2771281   0.0000000), wk =   0.0006664
        k(  522) = (   0.1596667   0.2765508   0.0000000), wk =   0.0006664
        k(  523) = (   0.1593333   0.2759734   0.0000000), wk =   0.0006664
        k(  524) = (   0.1590000   0.2753961   0.0000000), wk =   0.0006664
        k(  525) = (   0.1586667   0.2748187   0.0000000), wk =   0.0006664
        k(  526) = (   0.1583333   0.2742414   0.0000000), wk =   0.0006664
        k(  527) = (   0.1580000   0.2736640   0.0000000), wk =   0.0006664
        k(  528) = (   0.1576667   0.2730867   0.0000000), wk =   0.0006664
        k(  529) = (   0.1573333   0.2725093   0.0000000), wk =   0.0006664
        k(  530) = (   0.1570000   0.2719320   0.0000000), wk =   0.0006664
        k(  531) = (   0.1566667   0.2713546   0.0000000), wk =   0.0006664
        k(  532) = (   0.1563333   0.2707773   0.0000000), wk =   0.0006664
        k(  533) = (   0.1560000   0.2701999   0.0000000), wk =   0.0006664
        k(  534) = (   0.1556667   0.2696226   0.0000000), wk =   0.0006664
        k(  535) = (   0.1553333   0.2690452   0.0000000), wk =   0.0006664
        k(  536) = (   0.1550000   0.2684679   0.0000000), wk =   0.0006664
        k(  537) = (   0.1546667   0.2678905   0.0000000), wk =   0.0006664
        k(  538) = (   0.1543333   0.2673132   0.0000000), wk =   0.0006664
        k(  539) = (   0.1540000   0.2667358   0.0000000), wk =   0.0006664
        k(  540) = (   0.1536667   0.2661585   0.0000000), wk =   0.0006664
        k(  541) = (   0.1533333   0.2655811   0.0000000), wk =   0.0006664
        k(  542) = (   0.1530000   0.2650038   0.0000000), wk =   0.0006664
        k(  543) = (   0.1526667   0.2644264   0.0000000), wk =   0.0006664
        k(  544) = (   0.1523333   0.2638491   0.0000000), wk =   0.0006664
        k(  545) = (   0.1520000   0.2632717   0.0000000), wk =   0.0006664
        k(  546) = (   0.1516667   0.2626944   0.0000000), wk =   0.0006664
        k(  547) = (   0.1513333   0.2621170   0.0000000), wk =   0.0006664
        k(  548) = (   0.1510000   0.2615397   0.0000000), wk =   0.0006664
        k(  549) = (   0.1506667   0.2609623   0.0000000), wk =   0.0006664
        k(  550) = (   0.1503333   0.2603850   0.0000000), wk =   0.0006664
        k(  551) = (   0.1500000   0.2598076   0.0000000), wk =   0.0006664
        k(  552) = (   0.1496667   0.2592303   0.0000000), wk =   0.0006664
        k(  553) = (   0.1493333   0.2586529   0.0000000), wk =   0.0006664
        k(  554) = (   0.1490000   0.2580756   0.0000000), wk =   0.0006664
        k(  555) = (   0.1486667   0.2574982   0.0000000), wk =   0.0006664
        k(  556) = (   0.1483333   0.2569209   0.0000000), wk =   0.0006664
        k(  557) = (   0.1480000   0.2563435   0.0000000), wk =   0.0006664
        k(  558) = (   0.1476667   0.2557662   0.0000000), wk =   0.0006664
        k(  559) = (   0.1473333   0.2551888   0.0000000), wk =   0.0006664
        k(  560) = (   0.1470000   0.2546115   0.0000000), wk =   0.0006664
        k(  561) = (   0.1466667   0.2540341   0.0000000), wk =   0.0006664
        k(  562) = (   0.1463333   0.2534568   0.0000000), wk =   0.0006664
        k(  563) = (   0.1460000   0.2528794   0.0000000), wk =   0.0006664
        k(  564) = (   0.1456667   0.2523021   0.0000000), wk =   0.0006664
        k(  565) = (   0.1453333   0.2517247   0.0000000), wk =   0.0006664
        k(  566) = (   0.1450000   0.2511474   0.0000000), wk =   0.0006664
        k(  567) = (   0.1446667   0.2505700   0.0000000), wk =   0.0006664
        k(  568) = (   0.1443333   0.2499927   0.0000000), wk =   0.0006664
        k(  569) = (   0.1440000   0.2494153   0.0000000), wk =   0.0006664
        k(  570) = (   0.1436667   0.2488380   0.0000000), wk =   0.0006664
        k(  571) = (   0.1433333   0.2482606   0.0000000), wk =   0.0006664
        k(  572) = (   0.1430000   0.2476833   0.0000000), wk =   0.0006664
        k(  573) = (   0.1426667   0.2471059   0.0000000), wk =   0.0006664
        k(  574) = (   0.1423333   0.2465286   0.0000000), wk =   0.0006664
        k(  575) = (   0.1420000   0.2459512   0.0000000), wk =   0.0006664
        k(  576) = (   0.1416667   0.2453739   0.0000000), wk =   0.0006664
        k(  577) = (   0.1413333   0.2447965   0.0000000), wk =   0.0006664
        k(  578) = (   0.1410000   0.2442192   0.0000000), wk =   0.0006664
        k(  579) = (   0.1406667   0.2436418   0.0000000), wk =   0.0006664
        k(  580) = (   0.1403333   0.2430645   0.0000000), wk =   0.0006664
        k(  581) = (   0.1400000   0.2424871   0.0000000), wk =   0.0006664
        k(  582) = (   0.1396667   0.2419098   0.0000000), wk =   0.0006664
        k(  583) = (   0.1393333   0.2413324   0.0000000), wk =   0.0006664
        k(  584) = (   0.1390000   0.2407551   0.0000000), wk =   0.0006664
        k(  585) = (   0.1386667   0.2401777   0.0000000), wk =   0.0006664
        k(  586) = (   0.1383333   0.2396004   0.0000000), wk =   0.0006664
        k(  587) = (   0.1380000   0.2390230   0.0000000), wk =   0.0006664
        k(  588) = (   0.1376667   0.2384457   0.0000000), wk =   0.0006664
        k(  589) = (   0.1373333   0.2378683   0.0000000), wk =   0.0006664
        k(  590) = (   0.1370000   0.2372910   0.0000000), wk =   0.0006664
        k(  591) = (   0.1366667   0.2367136   0.0000000), wk =   0.0006664
        k(  592) = (   0.1363333   0.2361363   0.0000000), wk =   0.0006664
        k(  593) = (   0.1360000   0.2355589   0.0000000), wk =   0.0006664
        k(  594) = (   0.1356667   0.2349816   0.0000000), wk =   0.0006664
        k(  595) = (   0.1353333   0.2344042   0.0000000), wk =   0.0006664
        k(  596) = (   0.1350000   0.2338269   0.0000000), wk =   0.0006664
        k(  597) = (   0.1346667   0.2332495   0.0000000), wk =   0.0006664
        k(  598) = (   0.1343333   0.2326722   0.0000000), wk =   0.0006664
        k(  599) = (   0.1340000   0.2320948   0.0000000), wk =   0.0006664
        k(  600) = (   0.1336667   0.2315175   0.0000000), wk =   0.0006664
        k(  601) = (   0.1333333   0.2309401   0.0000000), wk =   0.0006664
        k(  602) = (   0.1330000   0.2303628   0.0000000), wk =   0.0006664
        k(  603) = (   0.1326667   0.2297854   0.0000000), wk =   0.0006664
        k(  604) = (   0.1323333   0.2292081   0.0000000), wk =   0.0006664
        k(  605) = (   0.1320000   0.2286307   0.0000000), wk =   0.0006664
        k(  606) = (   0.1316667   0.2280534   0.0000000), wk =   0.0006664
        k(  607) = (   0.1313333   0.2274760   0.0000000), wk =   0.0006664
        k(  608) = (   0.1310000   0.2268987   0.0000000), wk =   0.0006664
        k(  609) = (   0.1306667   0.2263213   0.0000000), wk =   0.0006664
        k(  610) = (   0.1303333   0.2257440   0.0000000), wk =   0.0006664
        k(  611) = (   0.1300000   0.2251666   0.0000000), wk =   0.0006664
        k(  612) = (   0.1296667   0.2245893   0.0000000), wk =   0.0006664
        k(  613) = (   0.1293333   0.2240119   0.0000000), wk =   0.0006664
        k(  614) = (   0.1290000   0.2234346   0.0000000), wk =   0.0006664
        k(  615) = (   0.1286667   0.2228572   0.0000000), wk =   0.0006664
        k(  616) = (   0.1283333   0.2222799   0.0000000), wk =   0.0006664
        k(  617) = (   0.1280000   0.2217025   0.0000000), wk =   0.0006664
        k(  618) = (   0.1276667   0.2211252   0.0000000), wk =   0.0006664
        k(  619) = (   0.1273333   0.2205478   0.0000000), wk =   0.0006664
        k(  620) = (   0.1270000   0.2199705   0.0000000), wk =   0.0006664
        k(  621) = (   0.1266667   0.2193931   0.0000000), wk =   0.0006664
        k(  622) = (   0.1263333   0.2188158   0.0000000), wk =   0.0006664
        k(  623) = (   0.1260000   0.2182384   0.0000000), wk =   0.0006664
        k(  624) = (   0.1256667   0.2176611   0.0000000), wk =   0.0006664
        k(  625) = (   0.1253333   0.2170837   0.0000000), wk =   0.0006664
        k(  626) = (   0.1250000   0.2165064   0.0000000), wk =   0.0006664
        k(  627) = (   0.1246667   0.2159290   0.0000000), wk =   0.0006664
        k(  628) = (   0.1243333   0.2153517   0.0000000), wk =   0.0006664
        k(  629) = (   0.1240000   0.2147743   0.0000000), wk =   0.0006664
        k(  630) = (   0.1236667   0.2141969   0.0000000), wk =   0.0006664
        k(  631) = (   0.1233333   0.2136196   0.0000000), wk =   0.0006664
        k(  632) = (   0.1230000   0.2130422   0.0000000), wk =   0.0006664
        k(  633) = (   0.1226667   0.2124649   0.0000000), wk =   0.0006664
        k(  634) = (   0.1223333   0.2118875   0.0000000), wk =   0.0006664
        k(  635) = (   0.1220000   0.2113102   0.0000000), wk =   0.0006664
        k(  636) = (   0.1216667   0.2107328   0.0000000), wk =   0.0006664
        k(  637) = (   0.1213333   0.2101555   0.0000000), wk =   0.0006664
        k(  638) = (   0.1210000   0.2095781   0.0000000), wk =   0.0006664
        k(  639) = (   0.1206667   0.2090008   0.0000000), wk =   0.0006664
        k(  640) = (   0.1203333   0.2084234   0.0000000), wk =   0.0006664
        k(  641) = (   0.1200000   0.2078461   0.0000000), wk =   0.0006664
        k(  642) = (   0.1196667   0.2072687   0.0000000), wk =   0.0006664
        k(  643) = (   0.1193333   0.2066914   0.0000000), wk =   0.0006664
        k(  644) = (   0.1190000   0.2061140   0.0000000), wk =   0.0006664
        k(  645) = (   0.1186667   0.2055367   0.0000000), wk =   0.0006664
        k(  646) = (   0.1183333   0.2049593   0.0000000), wk =   0.0006664
        k(  647) = (   0.1180000   0.2043820   0.0000000), wk =   0.0006664
        k(  648) = (   0.1176667   0.2038046   0.0000000), wk =   0.0006664
        k(  649) = (   0.1173333   0.2032273   0.0000000), wk =   0.0006664
        k(  650) = (   0.1170000   0.2026499   0.0000000), wk =   0.0006664
        k(  651) = (   0.1166667   0.2020726   0.0000000), wk =   0.0006664
        k(  652) = (   0.1163333   0.2014952   0.0000000), wk =   0.0006664
        k(  653) = (   0.1160000   0.2009179   0.0000000), wk =   0.0006664
        k(  654) = (   0.1156667   0.2003405   0.0000000), wk =   0.0006664
        k(  655) = (   0.1153333   0.1997632   0.0000000), wk =   0.0006664
        k(  656) = (   0.1150000   0.1991858   0.0000000), wk =   0.0006664
        k(  657) = (   0.1146667   0.1986085   0.0000000), wk =   0.0006664
        k(  658) = (   0.1143333   0.1980311   0.0000000), wk =   0.0006664
        k(  659) = (   0.1140000   0.1974538   0.0000000), wk =   0.0006664
        k(  660) = (   0.1136667   0.1968764   0.0000000), wk =   0.0006664
        k(  661) = (   0.1133333   0.1962991   0.0000000), wk =   0.0006664
        k(  662) = (   0.1130000   0.1957217   0.0000000), wk =   0.0006664
        k(  663) = (   0.1126667   0.1951444   0.0000000), wk =   0.0006664
        k(  664) = (   0.1123333   0.1945670   0.0000000), wk =   0.0006664
        k(  665) = (   0.1120000   0.1939897   0.0000000), wk =   0.0006664
        k(  666) = (   0.1116667   0.1934123   0.0000000), wk =   0.0006664
        k(  667) = (   0.1113333   0.1928350   0.0000000), wk =   0.0006664
        k(  668) = (   0.1110000   0.1922576   0.0000000), wk =   0.0006664
        k(  669) = (   0.1106667   0.1916803   0.0000000), wk =   0.0006664
        k(  670) = (   0.1103333   0.1911029   0.0000000), wk =   0.0006664
        k(  671) = (   0.1100000   0.1905256   0.0000000), wk =   0.0006664
        k(  672) = (   0.1096667   0.1899482   0.0000000), wk =   0.0006664
        k(  673) = (   0.1093333   0.1893709   0.0000000), wk =   0.0006664
        k(  674) = (   0.1090000   0.1887935   0.0000000), wk =   0.0006664
        k(  675) = (   0.1086667   0.1882162   0.0000000), wk =   0.0006664
        k(  676) = (   0.1083333   0.1876388   0.0000000), wk =   0.0006664
        k(  677) = (   0.1080000   0.1870615   0.0000000), wk =   0.0006664
        k(  678) = (   0.1076667   0.1864841   0.0000000), wk =   0.0006664
        k(  679) = (   0.1073333   0.1859068   0.0000000), wk =   0.0006664
        k(  680) = (   0.1070000   0.1853294   0.0000000), wk =   0.0006664
        k(  681) = (   0.1066667   0.1847521   0.0000000), wk =   0.0006664
        k(  682) = (   0.1063333   0.1841747   0.0000000), wk =   0.0006664
        k(  683) = (   0.1060000   0.1835974   0.0000000), wk =   0.0006664
        k(  684) = (   0.1056667   0.1830200   0.0000000), wk =   0.0006664
        k(  685) = (   0.1053333   0.1824427   0.0000000), wk =   0.0006664
        k(  686) = (   0.1050000   0.1818653   0.0000000), wk =   0.0006664
        k(  687) = (   0.1046667   0.1812880   0.0000000), wk =   0.0006664
        k(  688) = (   0.1043333   0.1807106   0.0000000), wk =   0.0006664
        k(  689) = (   0.1040000   0.1801333   0.0000000), wk =   0.0006664
        k(  690) = (   0.1036667   0.1795559   0.0000000), wk =   0.0006664
        k(  691) = (   0.1033333   0.1789786   0.0000000), wk =   0.0006664
        k(  692) = (   0.1030000   0.1784012   0.0000000), wk =   0.0006664
        k(  693) = (   0.1026667   0.1778239   0.0000000), wk =   0.0006664
        k(  694) = (   0.1023333   0.1772465   0.0000000), wk =   0.0006664
        k(  695) = (   0.1020000   0.1766692   0.0000000), wk =   0.0006664
        k(  696) = (   0.1016667   0.1760918   0.0000000), wk =   0.0006664
        k(  697) = (   0.1013333   0.1755145   0.0000000), wk =   0.0006664
        k(  698) = (   0.1010000   0.1749371   0.0000000), wk =   0.0006664
        k(  699) = (   0.1006667   0.1743598   0.0000000), wk =   0.0006664
        k(  700) = (   0.1003333   0.1737824   0.0000000), wk =   0.0006664
        k(  701) = (   0.1000000   0.1732051   0.0000000), wk =   0.0006664
        k(  702) = (   0.0996667   0.1726277   0.0000000), wk =   0.0006664
        k(  703) = (   0.0993333   0.1720504   0.0000000), wk =   0.0006664
        k(  704) = (   0.0990000   0.1714730   0.0000000), wk =   0.0006664
        k(  705) = (   0.0986667   0.1708957   0.0000000), wk =   0.0006664
        k(  706) = (   0.0983333   0.1703183   0.0000000), wk =   0.0006664
        k(  707) = (   0.0980000   0.1697410   0.0000000), wk =   0.0006664
        k(  708) = (   0.0976667   0.1691636   0.0000000), wk =   0.0006664
        k(  709) = (   0.0973333   0.1685863   0.0000000), wk =   0.0006664
        k(  710) = (   0.0970000   0.1680089   0.0000000), wk =   0.0006664
        k(  711) = (   0.0966667   0.1674316   0.0000000), wk =   0.0006664
        k(  712) = (   0.0963333   0.1668542   0.0000000), wk =   0.0006664
        k(  713) = (   0.0960000   0.1662769   0.0000000), wk =   0.0006664
        k(  714) = (   0.0956667   0.1656995   0.0000000), wk =   0.0006664
        k(  715) = (   0.0953333   0.1651222   0.0000000), wk =   0.0006664
        k(  716) = (   0.0950000   0.1645448   0.0000000), wk =   0.0006664
        k(  717) = (   0.0946667   0.1639675   0.0000000), wk =   0.0006664
        k(  718) = (   0.0943333   0.1633901   0.0000000), wk =   0.0006664
        k(  719) = (   0.0940000   0.1628128   0.0000000), wk =   0.0006664
        k(  720) = (   0.0936667   0.1622354   0.0000000), wk =   0.0006664
        k(  721) = (   0.0933333   0.1616581   0.0000000), wk =   0.0006664
        k(  722) = (   0.0930000   0.1610807   0.0000000), wk =   0.0006664
        k(  723) = (   0.0926667   0.1605034   0.0000000), wk =   0.0006664
        k(  724) = (   0.0923333   0.1599260   0.0000000), wk =   0.0006664
        k(  725) = (   0.0920000   0.1593487   0.0000000), wk =   0.0006664
        k(  726) = (   0.0916667   0.1587713   0.0000000), wk =   0.0006664
        k(  727) = (   0.0913333   0.1581940   0.0000000), wk =   0.0006664
        k(  728) = (   0.0910000   0.1576166   0.0000000), wk =   0.0006664
        k(  729) = (   0.0906667   0.1570393   0.0000000), wk =   0.0006664
        k(  730) = (   0.0903333   0.1564619   0.0000000), wk =   0.0006664
        k(  731) = (   0.0900000   0.1558846   0.0000000), wk =   0.0006664
        k(  732) = (   0.0896667   0.1553072   0.0000000), wk =   0.0006664
        k(  733) = (   0.0893333   0.1547299   0.0000000), wk =   0.0006664
        k(  734) = (   0.0890000   0.1541525   0.0000000), wk =   0.0006664
        k(  735) = (   0.0886667   0.1535752   0.0000000), wk =   0.0006664
        k(  736) = (   0.0883333   0.1529978   0.0000000), wk =   0.0006664
        k(  737) = (   0.0880000   0.1524205   0.0000000), wk =   0.0006664
        k(  738) = (   0.0876667   0.1518431   0.0000000), wk =   0.0006664
        k(  739) = (   0.0873333   0.1512658   0.0000000), wk =   0.0006664
        k(  740) = (   0.0870000   0.1506884   0.0000000), wk =   0.0006664
        k(  741) = (   0.0866667   0.1501111   0.0000000), wk =   0.0006664
        k(  742) = (   0.0863333   0.1495337   0.0000000), wk =   0.0006664
        k(  743) = (   0.0860000   0.1489564   0.0000000), wk =   0.0006664
        k(  744) = (   0.0856667   0.1483790   0.0000000), wk =   0.0006664
        k(  745) = (   0.0853333   0.1478017   0.0000000), wk =   0.0006664
        k(  746) = (   0.0850000   0.1472243   0.0000000), wk =   0.0006664
        k(  747) = (   0.0846667   0.1466470   0.0000000), wk =   0.0006664
        k(  748) = (   0.0843333   0.1460696   0.0000000), wk =   0.0006664
        k(  749) = (   0.0840000   0.1454923   0.0000000), wk =   0.0006664
        k(  750) = (   0.0836667   0.1449149   0.0000000), wk =   0.0006664
        k(  751) = (   0.0833333   0.1443376   0.0000000), wk =   0.0006664
        k(  752) = (   0.0830000   0.1437602   0.0000000), wk =   0.0006664
        k(  753) = (   0.0826667   0.1431829   0.0000000), wk =   0.0006664
        k(  754) = (   0.0823333   0.1426055   0.0000000), wk =   0.0006664
        k(  755) = (   0.0820000   0.1420282   0.0000000), wk =   0.0006664
        k(  756) = (   0.0816667   0.1414508   0.0000000), wk =   0.0006664
        k(  757) = (   0.0813333   0.1408735   0.0000000), wk =   0.0006664
        k(  758) = (   0.0810000   0.1402961   0.0000000), wk =   0.0006664
        k(  759) = (   0.0806667   0.1397188   0.0000000), wk =   0.0006664
        k(  760) = (   0.0803333   0.1391414   0.0000000), wk =   0.0006664
        k(  761) = (   0.0800000   0.1385641   0.0000000), wk =   0.0006664
        k(  762) = (   0.0796667   0.1379867   0.0000000), wk =   0.0006664
        k(  763) = (   0.0793333   0.1374094   0.0000000), wk =   0.0006664
        k(  764) = (   0.0790000   0.1368320   0.0000000), wk =   0.0006664
        k(  765) = (   0.0786667   0.1362547   0.0000000), wk =   0.0006664
        k(  766) = (   0.0783333   0.1356773   0.0000000), wk =   0.0006664
        k(  767) = (   0.0780000   0.1351000   0.0000000), wk =   0.0006664
        k(  768) = (   0.0776667   0.1345226   0.0000000), wk =   0.0006664
        k(  769) = (   0.0773333   0.1339453   0.0000000), wk =   0.0006664
        k(  770) = (   0.0770000   0.1333679   0.0000000), wk =   0.0006664
        k(  771) = (   0.0766667   0.1327906   0.0000000), wk =   0.0006664
        k(  772) = (   0.0763333   0.1322132   0.0000000), wk =   0.0006664
        k(  773) = (   0.0760000   0.1316359   0.0000000), wk =   0.0006664
        k(  774) = (   0.0756667   0.1310585   0.0000000), wk =   0.0006664
        k(  775) = (   0.0753333   0.1304812   0.0000000), wk =   0.0006664
        k(  776) = (   0.0750000   0.1299038   0.0000000), wk =   0.0006664
        k(  777) = (   0.0746667   0.1293265   0.0000000), wk =   0.0006664
        k(  778) = (   0.0743333   0.1287491   0.0000000), wk =   0.0006664
        k(  779) = (   0.0740000   0.1281718   0.0000000), wk =   0.0006664
        k(  780) = (   0.0736667   0.1275944   0.0000000), wk =   0.0006664
        k(  781) = (   0.0733333   0.1270171   0.0000000), wk =   0.0006664
        k(  782) = (   0.0730000   0.1264397   0.0000000), wk =   0.0006664
        k(  783) = (   0.0726667   0.1258624   0.0000000), wk =   0.0006664
        k(  784) = (   0.0723333   0.1252850   0.0000000), wk =   0.0006664
        k(  785) = (   0.0720000   0.1247077   0.0000000), wk =   0.0006664
        k(  786) = (   0.0716667   0.1241303   0.0000000), wk =   0.0006664
        k(  787) = (   0.0713333   0.1235530   0.0000000), wk =   0.0006664
        k(  788) = (   0.0710000   0.1229756   0.0000000), wk =   0.0006664
        k(  789) = (   0.0706667   0.1223983   0.0000000), wk =   0.0006664
        k(  790) = (   0.0703333   0.1218209   0.0000000), wk =   0.0006664
        k(  791) = (   0.0700000   0.1212436   0.0000000), wk =   0.0006664
        k(  792) = (   0.0696667   0.1206662   0.0000000), wk =   0.0006664
        k(  793) = (   0.0693333   0.1200889   0.0000000), wk =   0.0006664
        k(  794) = (   0.0690000   0.1195115   0.0000000), wk =   0.0006664
        k(  795) = (   0.0686667   0.1189342   0.0000000), wk =   0.0006664
        k(  796) = (   0.0683333   0.1183568   0.0000000), wk =   0.0006664
        k(  797) = (   0.0680000   0.1177795   0.0000000), wk =   0.0006664
        k(  798) = (   0.0676667   0.1172021   0.0000000), wk =   0.0006664
        k(  799) = (   0.0673333   0.1166248   0.0000000), wk =   0.0006664
        k(  800) = (   0.0670000   0.1160474   0.0000000), wk =   0.0006664
        k(  801) = (   0.0666667   0.1154701   0.0000000), wk =   0.0006664
        k(  802) = (   0.0663333   0.1148927   0.0000000), wk =   0.0006664
        k(  803) = (   0.0660000   0.1143154   0.0000000), wk =   0.0006664
        k(  804) = (   0.0656667   0.1137380   0.0000000), wk =   0.0006664
        k(  805) = (   0.0653333   0.1131607   0.0000000), wk =   0.0006664
        k(  806) = (   0.0650000   0.1125833   0.0000000), wk =   0.0006664
        k(  807) = (   0.0646667   0.1120060   0.0000000), wk =   0.0006664
        k(  808) = (   0.0643333   0.1114286   0.0000000), wk =   0.0006664
        k(  809) = (   0.0640000   0.1108513   0.0000000), wk =   0.0006664
        k(  810) = (   0.0636667   0.1102739   0.0000000), wk =   0.0006664
        k(  811) = (   0.0633333   0.1096966   0.0000000), wk =   0.0006664
        k(  812) = (   0.0630000   0.1091192   0.0000000), wk =   0.0006664
        k(  813) = (   0.0626667   0.1085419   0.0000000), wk =   0.0006664
        k(  814) = (   0.0623333   0.1079645   0.0000000), wk =   0.0006664
        k(  815) = (   0.0620000   0.1073872   0.0000000), wk =   0.0006664
        k(  816) = (   0.0616667   0.1068098   0.0000000), wk =   0.0006664
        k(  817) = (   0.0613333   0.1062324   0.0000000), wk =   0.0006664
        k(  818) = (   0.0610000   0.1056551   0.0000000), wk =   0.0006664
        k(  819) = (   0.0606667   0.1050777   0.0000000), wk =   0.0006664
        k(  820) = (   0.0603333   0.1045004   0.0000000), wk =   0.0006664
        k(  821) = (   0.0600000   0.1039230   0.0000000), wk =   0.0006664
        k(  822) = (   0.0596667   0.1033457   0.0000000), wk =   0.0006664
        k(  823) = (   0.0593333   0.1027683   0.0000000), wk =   0.0006664
        k(  824) = (   0.0590000   0.1021910   0.0000000), wk =   0.0006664
        k(  825) = (   0.0586667   0.1016136   0.0000000), wk =   0.0006664
        k(  826) = (   0.0583333   0.1010363   0.0000000), wk =   0.0006664
        k(  827) = (   0.0580000   0.1004589   0.0000000), wk =   0.0006664
        k(  828) = (   0.0576667   0.0998816   0.0000000), wk =   0.0006664
        k(  829) = (   0.0573333   0.0993042   0.0000000), wk =   0.0006664
        k(  830) = (   0.0570000   0.0987269   0.0000000), wk =   0.0006664
        k(  831) = (   0.0566667   0.0981495   0.0000000), wk =   0.0006664
        k(  832) = (   0.0563333   0.0975722   0.0000000), wk =   0.0006664
        k(  833) = (   0.0560000   0.0969948   0.0000000), wk =   0.0006664
        k(  834) = (   0.0556667   0.0964175   0.0000000), wk =   0.0006664
        k(  835) = (   0.0553333   0.0958401   0.0000000), wk =   0.0006664
        k(  836) = (   0.0550000   0.0952628   0.0000000), wk =   0.0006664
        k(  837) = (   0.0546667   0.0946854   0.0000000), wk =   0.0006664
        k(  838) = (   0.0543333   0.0941081   0.0000000), wk =   0.0006664
        k(  839) = (   0.0540000   0.0935307   0.0000000), wk =   0.0006664
        k(  840) = (   0.0536667   0.0929534   0.0000000), wk =   0.0006664
        k(  841) = (   0.0533333   0.0923760   0.0000000), wk =   0.0006664
        k(  842) = (   0.0530000   0.0917987   0.0000000), wk =   0.0006664
        k(  843) = (   0.0526667   0.0912213   0.0000000), wk =   0.0006664
        k(  844) = (   0.0523333   0.0906440   0.0000000), wk =   0.0006664
        k(  845) = (   0.0520000   0.0900666   0.0000000), wk =   0.0006664
        k(  846) = (   0.0516667   0.0894893   0.0000000), wk =   0.0006664
        k(  847) = (   0.0513333   0.0889119   0.0000000), wk =   0.0006664
        k(  848) = (   0.0510000   0.0883346   0.0000000), wk =   0.0006664
        k(  849) = (   0.0506667   0.0877572   0.0000000), wk =   0.0006664
        k(  850) = (   0.0503333   0.0871799   0.0000000), wk =   0.0006664
        k(  851) = (   0.0500000   0.0866025   0.0000000), wk =   0.0006664
        k(  852) = (   0.0496667   0.0860252   0.0000000), wk =   0.0006664
        k(  853) = (   0.0493333   0.0854478   0.0000000), wk =   0.0006664
        k(  854) = (   0.0490000   0.0848705   0.0000000), wk =   0.0006664
        k(  855) = (   0.0486667   0.0842931   0.0000000), wk =   0.0006664
        k(  856) = (   0.0483333   0.0837158   0.0000000), wk =   0.0006664
        k(  857) = (   0.0480000   0.0831384   0.0000000), wk =   0.0006664
        k(  858) = (   0.0476667   0.0825611   0.0000000), wk =   0.0006664
        k(  859) = (   0.0473333   0.0819837   0.0000000), wk =   0.0006664
        k(  860) = (   0.0470000   0.0814064   0.0000000), wk =   0.0006664
        k(  861) = (   0.0466667   0.0808290   0.0000000), wk =   0.0006664
        k(  862) = (   0.0463333   0.0802517   0.0000000), wk =   0.0006664
        k(  863) = (   0.0460000   0.0796743   0.0000000), wk =   0.0006664
        k(  864) = (   0.0456667   0.0790970   0.0000000), wk =   0.0006664
        k(  865) = (   0.0453333   0.0785196   0.0000000), wk =   0.0006664
        k(  866) = (   0.0450000   0.0779423   0.0000000), wk =   0.0006664
        k(  867) = (   0.0446667   0.0773649   0.0000000), wk =   0.0006664
        k(  868) = (   0.0443333   0.0767876   0.0000000), wk =   0.0006664
        k(  869) = (   0.0440000   0.0762102   0.0000000), wk =   0.0006664
        k(  870) = (   0.0436667   0.0756329   0.0000000), wk =   0.0006664
        k(  871) = (   0.0433333   0.0750555   0.0000000), wk =   0.0006664
        k(  872) = (   0.0430000   0.0744782   0.0000000), wk =   0.0006664
        k(  873) = (   0.0426667   0.0739008   0.0000000), wk =   0.0006664
        k(  874) = (   0.0423333   0.0733235   0.0000000), wk =   0.0006664
        k(  875) = (   0.0420000   0.0727461   0.0000000), wk =   0.0006664
        k(  876) = (   0.0416667   0.0721688   0.0000000), wk =   0.0006664
        k(  877) = (   0.0413333   0.0715914   0.0000000), wk =   0.0006664
        k(  878) = (   0.0410000   0.0710141   0.0000000), wk =   0.0006664
        k(  879) = (   0.0406667   0.0704367   0.0000000), wk =   0.0006664
        k(  880) = (   0.0403333   0.0698594   0.0000000), wk =   0.0006664
        k(  881) = (   0.0400000   0.0692820   0.0000000), wk =   0.0006664
        k(  882) = (   0.0396667   0.0687047   0.0000000), wk =   0.0006664
        k(  883) = (   0.0393333   0.0681273   0.0000000), wk =   0.0006664
        k(  884) = (   0.0390000   0.0675500   0.0000000), wk =   0.0006664
        k(  885) = (   0.0386667   0.0669726   0.0000000), wk =   0.0006664
        k(  886) = (   0.0383333   0.0663953   0.0000000), wk =   0.0006664
        k(  887) = (   0.0380000   0.0658179   0.0000000), wk =   0.0006664
        k(  888) = (   0.0376667   0.0652406   0.0000000), wk =   0.0006664
        k(  889) = (   0.0373333   0.0646632   0.0000000), wk =   0.0006664
        k(  890) = (   0.0370000   0.0640859   0.0000000), wk =   0.0006664
        k(  891) = (   0.0366667   0.0635085   0.0000000), wk =   0.0006664
        k(  892) = (   0.0363333   0.0629312   0.0000000), wk =   0.0006664
        k(  893) = (   0.0360000   0.0623538   0.0000000), wk =   0.0006664
        k(  894) = (   0.0356667   0.0617765   0.0000000), wk =   0.0006664
        k(  895) = (   0.0353333   0.0611991   0.0000000), wk =   0.0006664
        k(  896) = (   0.0350000   0.0606218   0.0000000), wk =   0.0006664
        k(  897) = (   0.0346667   0.0600444   0.0000000), wk =   0.0006664
        k(  898) = (   0.0343333   0.0594671   0.0000000), wk =   0.0006664
        k(  899) = (   0.0340000   0.0588897   0.0000000), wk =   0.0006664
        k(  900) = (   0.0336667   0.0583124   0.0000000), wk =   0.0006664
        k(  901) = (   0.0333333   0.0577350   0.0000000), wk =   0.0006664
        k(  902) = (   0.0330000   0.0571577   0.0000000), wk =   0.0006664
        k(  903) = (   0.0326667   0.0565803   0.0000000), wk =   0.0006664
        k(  904) = (   0.0323333   0.0560030   0.0000000), wk =   0.0006664
        k(  905) = (   0.0320000   0.0554256   0.0000000), wk =   0.0006664
        k(  906) = (   0.0316667   0.0548483   0.0000000), wk =   0.0006664
        k(  907) = (   0.0313333   0.0542709   0.0000000), wk =   0.0006664
        k(  908) = (   0.0310000   0.0536936   0.0000000), wk =   0.0006664
        k(  909) = (   0.0306667   0.0531162   0.0000000), wk =   0.0006664
        k(  910) = (   0.0303333   0.0525389   0.0000000), wk =   0.0006664
        k(  911) = (   0.0300000   0.0519615   0.0000000), wk =   0.0006664
        k(  912) = (   0.0296667   0.0513842   0.0000000), wk =   0.0006664
        k(  913) = (   0.0293333   0.0508068   0.0000000), wk =   0.0006664
        k(  914) = (   0.0290000   0.0502295   0.0000000), wk =   0.0006664
        k(  915) = (   0.0286667   0.0496521   0.0000000), wk =   0.0006664
        k(  916) = (   0.0283333   0.0490748   0.0000000), wk =   0.0006664
        k(  917) = (   0.0280000   0.0484974   0.0000000), wk =   0.0006664
        k(  918) = (   0.0276667   0.0479201   0.0000000), wk =   0.0006664
        k(  919) = (   0.0273333   0.0473427   0.0000000), wk =   0.0006664
        k(  920) = (   0.0270000   0.0467654   0.0000000), wk =   0.0006664
        k(  921) = (   0.0266667   0.0461880   0.0000000), wk =   0.0006664
        k(  922) = (   0.0263333   0.0456107   0.0000000), wk =   0.0006664
        k(  923) = (   0.0260000   0.0450333   0.0000000), wk =   0.0006664
        k(  924) = (   0.0256667   0.0444560   0.0000000), wk =   0.0006664
        k(  925) = (   0.0253333   0.0438786   0.0000000), wk =   0.0006664
        k(  926) = (   0.0250000   0.0433013   0.0000000), wk =   0.0006664
        k(  927) = (   0.0246667   0.0427239   0.0000000), wk =   0.0006664
        k(  928) = (   0.0243333   0.0421466   0.0000000), wk =   0.0006664
        k(  929) = (   0.0240000   0.0415692   0.0000000), wk =   0.0006664
        k(  930) = (   0.0236667   0.0409919   0.0000000), wk =   0.0006664
        k(  931) = (   0.0233333   0.0404145   0.0000000), wk =   0.0006664
        k(  932) = (   0.0230000   0.0398372   0.0000000), wk =   0.0006664
        k(  933) = (   0.0226667   0.0392598   0.0000000), wk =   0.0006664
        k(  934) = (   0.0223333   0.0386825   0.0000000), wk =   0.0006664
        k(  935) = (   0.0220000   0.0381051   0.0000000), wk =   0.0006664
        k(  936) = (   0.0216667   0.0375278   0.0000000), wk =   0.0006664
        k(  937) = (   0.0213333   0.0369504   0.0000000), wk =   0.0006664
        k(  938) = (   0.0210000   0.0363731   0.0000000), wk =   0.0006664
        k(  939) = (   0.0206667   0.0357957   0.0000000), wk =   0.0006664
        k(  940) = (   0.0203333   0.0352184   0.0000000), wk =   0.0006664
        k(  941) = (   0.0200000   0.0346410   0.0000000), wk =   0.0006664
        k(  942) = (   0.0196667   0.0340637   0.0000000), wk =   0.0006664
        k(  943) = (   0.0193333   0.0334863   0.0000000), wk =   0.0006664
        k(  944) = (   0.0190000   0.0329090   0.0000000), wk =   0.0006664
        k(  945) = (   0.0186667   0.0323316   0.0000000), wk =   0.0006664
        k(  946) = (   0.0183333   0.0317543   0.0000000), wk =   0.0006664
        k(  947) = (   0.0180000   0.0311769   0.0000000), wk =   0.0006664
        k(  948) = (   0.0176667   0.0305996   0.0000000), wk =   0.0006664
        k(  949) = (   0.0173333   0.0300222   0.0000000), wk =   0.0006664
        k(  950) = (   0.0170000   0.0294449   0.0000000), wk =   0.0006664
        k(  951) = (   0.0166667   0.0288675   0.0000000), wk =   0.0006664
        k(  952) = (   0.0163333   0.0282902   0.0000000), wk =   0.0006664
        k(  953) = (   0.0160000   0.0277128   0.0000000), wk =   0.0006664
        k(  954) = (   0.0156667   0.0271355   0.0000000), wk =   0.0006664
        k(  955) = (   0.0153333   0.0265581   0.0000000), wk =   0.0006664
        k(  956) = (   0.0150000   0.0259808   0.0000000), wk =   0.0006664
        k(  957) = (   0.0146667   0.0254034   0.0000000), wk =   0.0006664
        k(  958) = (   0.0143333   0.0248261   0.0000000), wk =   0.0006664
        k(  959) = (   0.0140000   0.0242487   0.0000000), wk =   0.0006664
        k(  960) = (   0.0136667   0.0236714   0.0000000), wk =   0.0006664
        k(  961) = (   0.0133333   0.0230940   0.0000000), wk =   0.0006664
        k(  962) = (   0.0130000   0.0225167   0.0000000), wk =   0.0006664
        k(  963) = (   0.0126667   0.0219393   0.0000000), wk =   0.0006664
        k(  964) = (   0.0123333   0.0213620   0.0000000), wk =   0.0006664
        k(  965) = (   0.0120000   0.0207846   0.0000000), wk =   0.0006664
        k(  966) = (   0.0116667   0.0202073   0.0000000), wk =   0.0006664
        k(  967) = (   0.0113333   0.0196299   0.0000000), wk =   0.0006664
        k(  968) = (   0.0110000   0.0190526   0.0000000), wk =   0.0006664
        k(  969) = (   0.0106667   0.0184752   0.0000000), wk =   0.0006664
        k(  970) = (   0.0103333   0.0178979   0.0000000), wk =   0.0006664
        k(  971) = (   0.0100000   0.0173205   0.0000000), wk =   0.0006664
        k(  972) = (   0.0096667   0.0167432   0.0000000), wk =   0.0006664
        k(  973) = (   0.0093333   0.0161658   0.0000000), wk =   0.0006664
[...]

          k = 0.3110 0.5774 0.0000 (  2727 PWs)   bands (ev):

   -14.5193 -14.1026 -12.1923  -1.9982  -1.3639   8.9560  11.0569  11.2035
    11.7295  12.8730  13.1401  13.2654  13.3275  13.9709  14.3083  14.3115
    14.7787  15.2540  15.4267  15.8224

          k = 0.3113 0.5774 0.0000 (  2727 PWs)   bands (ev):

   -14.5162 -14.1044 -12.1942  -1.9938  -1.3682   8.9554  11.0591  11.2050
    11.7316  12.8780  13.1441  13.2695  13.3291  13.9641  14.3015  14.3128
    14.7721  15.2590  15.4273  15.8212

          k = 0.3117 0.5774 0.0000 (  2727 PWs)   bands (ev):

   -14.5131 -14.1062 -12.1960  -1.9895  -1.3724   8.9548  11.0612  11.2065
    11.7338  12.8830  13.1481  13.2736  13.3307  13.9574  14.2949  14.3142
    14.7656  15.2641  15.4278  15.8199

          k = 0.3120 0.5774 0.0000 (  2727 PWs)   bands (ev):

   -14.5099 -14.1080 -12.1978  -1.9851  -1.3767   8.9542  11.0633  11.2080
    11.7359  12.8881  13.1521  13.2777  13.3322  13.9506  14.2883  14.3156
    14.7590  15.2691  15.4284  15.8186

          k = 0.3123 0.5774 0.0000 (  2727 PWs)   bands (ev):

   -14.5068 -14.1098 -12.1996  -1.9807  -1.3809   8.9537  11.0654  11.2094
    11.7379  12.8931  13.1560  13.2818  13.3337  13.9438  14.2817  14.3169
    14.7525  15.2741  15.4291  15.8172

          k = 0.3127 0.5774 0.0000 (  2727 PWs)   bands (ev):

   -14.5037 -14.1117 -12.2013  -1.9764  -1.3852   8.9531  11.0675  11.2108
    11.7399  12.8982  13.1600  13.2858  13.3351  13.9371  14.2752  14.3183
    14.7460  15.2791  15.4297  15.8157

          k = 0.3130 0.5774 0.0000 (  2725 PWs)   bands (ev):

   -14.5005 -14.1136 -12.2030  -1.9720  -1.3895   8.9526  11.0696  11.2122
    11.7419  12.9032  13.1640  13.2899  13.3364  13.9304  14.2687  14.3197
    14.7395  15.2841  15.4304  15.8142

          k = 0.3133 0.5774 0.0000 (  2725 PWs)   bands (ev):

   -14.4974 -14.1155 -12.2047  -1.9676  -1.3938   8.9520  11.0717  11.2135
    11.7438  12.9083  13.1680  13.2939  13.3377  13.9236  14.2624  14.3212
    14.7331  15.2892  15.4311  15.8127

          k = 0.3137 0.5774 0.0000 (  2725 PWs)   bands (ev):

   -14.4943 -14.1175 -12.2063  -1.9632  -1.3981   8.9515  11.0738  11.2148
    11.7457  12.9133  13.1720  13.2980  13.3388  13.9169  14.2560  14.3226
    14.7267  15.2942  15.4318  15.8111

          k = 0.3140 0.5774 0.0000 (  2725 PWs)   bands (ev):

   -14.4911 -14.1195 -12.2080  -1.9588  -1.4024   8.9510  11.0758  11.2161
    11.7475  12.9184  13.1760  13.3020  13.3400  13.9102  14.2498  14.3241
    14.7203  15.2993  15.4326  15.8094

          k = 0.3143 0.5774 0.0000 (  2725 PWs)   bands (ev):

   -14.4880 -14.1215 -12.2095  -1.9544  -1.4067   8.9505  11.0779  11.2173
    11.7493  12.9235  13.1799  13.3060  13.3410  13.9035  14.2436  14.3255
    14.7140  15.3043  15.4333  15.8077

          k = 0.3147 0.5774 0.0000 (  2725 PWs)   bands (ev):

   -14.4848 -14.1235 -12.2111  -1.9500  -1.4110   8.9500  11.0800  11.2184
    11.7511  12.9286  13.1839  13.3099  13.3419  13.8969  14.2375  14.3270
    14.7077  15.3094  15.4341  15.8060

          k = 0.3150 0.5774 0.0000 (  2725 PWs)   bands (ev):

   -14.4817 -14.1255 -12.2126  -1.9456  -1.4153   8.9495  11.0820  11.2196
    11.7528  12.9337  13.1879  13.3139  13.3428  13.8902  14.2314  14.3285
    14.7015  15.3144  15.4348  15.8041

          k = 0.3153 0.5774 0.0000 (  2725 PWs)   bands (ev):

   -14.4785 -14.1276 -12.2141  -1.9412  -1.4196   8.9490  11.0841  11.2207
    11.7545  12.9387  13.1919  13.3179  13.3436  13.8836  14.2255  14.3300
    14.6953  15.3195  15.4356  15.8022

          k = 0.3157 0.5774 0.0000 (  2725 PWs)   bands (ev):

   -14.4754 -14.1297 -12.2156  -1.9368  -1.4240   8.9485  11.0861  11.2217
    11.7561  12.9438  13.1959  13.3218  13.3443  13.8769  14.2196  14.3315
    14.6891  15.3246  15.4364  15.8003

          k = 0.3160 0.5774 0.0000 (  2729 PWs)   bands (ev):

   -14.4722 -14.1318 -12.2170  -1.9324  -1.4283   8.9481  11.0881  11.2228
    11.7577  12.9489  13.1998  13.3257  13.3450  13.8703  14.2138  14.3331
    14.6830  15.3297  15.4372  15.7983

          k = 0.3163 0.5774 0.0000 (  2729 PWs)   bands (ev):

   -14.4690 -14.1340 -12.2184  -1.9280  -1.4326   8.9476  11.0902  11.2237
    11.7592  12.9540  13.2038  13.3296  13.3455  13.8637  14.2080  14.3346
    14.6769  15.3348  15.4380  15.7962

          k = 0.3167 0.5774 0.0000 (  2729 PWs)   bands (ev):

   -14.4659 -14.1362 -12.2198  -1.9236  -1.4370   8.9472  11.0922  11.2247
    11.7608  12.9592  13.2078  13.3335  13.3460  13.8571  14.2024  14.3362
    14.6709  15.3398  15.4388  15.7941

          k = 0.3170 0.5774 0.0000 (  2729 PWs)   bands (ev):

   -14.4627 -14.1384 -12.2211  -1.9191  -1.4413   8.9467  11.0942  11.2256
    11.7622  12.9643  13.2118  13.3374  13.3463  13.8505  14.1968  14.3377
    14.6649  15.3449  15.4397  15.7919

          k = 0.3173 0.5774 0.0000 (  2729 PWs)   bands (ev):

   -14.4595 -14.1406 -12.2224  -1.9147  -1.4457   8.9463  11.0962  11.2264
    11.7637  12.9694  13.2158  13.3412  13.3466  13.8439  14.1914  14.3393
    14.6590  15.3500  15.4405  15.7896

          k = 0.3177 0.5774 0.0000 (  2729 PWs)   bands (ev):

   -14.4563 -14.1429 -12.2237  -1.9103  -1.4501   8.9459  11.0982  11.2272
    11.7651  12.9745  13.2198  13.3450  13.3468  13.8373  14.1860  14.3409
    14.6532  15.3551  15.4413  15.7873

          k = 0.3180 0.5774 0.0000 (  2729 PWs)   bands (ev):

   -14.4532 -14.1452 -12.2250  -1.9058  -1.4545   8.9455  11.1002  11.2280
    11.7664  12.9797  13.2237  13.3468  13.3488  13.8308  14.1807  14.3426
    14.6474  15.3603  15.4421  15.7849

          k = 0.3183 0.5774 0.0000 (  2729 PWs)   bands (ev):

   -14.4500 -14.1475 -12.2262  -1.9014  -1.4588   8.9451  11.1022  11.2287
    11.7677  12.9848  13.2277  13.3468  13.3526  13.8242  14.1755  14.3442
    14.6416  15.3654  15.4430  15.7825

          k = 0.3187 0.5774 0.0000 (  2729 PWs)   bands (ev):

   -14.4468 -14.1498 -12.2274  -1.8969  -1.4632   8.9447  11.1041  11.2294
    11.7690  12.9899  13.2317  13.3467  13.3564  13.8177  14.1704  14.3458
    14.6359  15.3705  15.4438  15.7799

          k = 0.3190 0.5774 0.0000 (  2729 PWs)   bands (ev):

   -14.4436 -14.1522 -12.2286  -1.8925  -1.4676   8.9444  11.1061  11.2300
    11.7703  12.9951  13.2357  13.3464  13.3601  13.8112  14.1654  14.3475
    14.6303  15.3756  15.4446  15.7773

          k = 0.3193 0.5774 0.0000 (  2729 PWs)   bands (ev):

   -14.4404 -14.1546 -12.2297  -1.8880  -1.4720   8.9440  11.1081  11.2306
    11.7715  13.0002  13.2397  13.3461  13.3638  13.8046  14.1605  14.3492
    14.6247  15.3807  15.4455  15.7747

          k = 0.3197 0.5774 0.0000 (  2729 PWs)   bands (ev):

   -14.4372 -14.1570 -12.2308  -1.8836  -1.4764   8.9436  11.1100  11.2312
    11.7726  13.0054  13.2436  13.3457  13.3674  13.7982  14.1557  14.3509
    14.6192  15.3859  15.4463  15.7719

          k = 0.3200 0.5774 0.0000 (  2729 PWs)   bands (ev):

   -14.4340 -14.1594 -12.2319  -1.8791  -1.4809   8.9433  11.1119  11.2317
    11.7738  13.0106  13.2476  13.3451  13.3711  13.7917  14.1510  14.3526
    14.6137  15.3910  15.4471  15.7692

          k = 0.3203 0.5774 0.0000 (  2729 PWs)   bands (ev):

   -14.4308 -14.1619 -12.2329  -1.8746  -1.4853   8.9430  11.1139  11.2321
    11.7749  13.0157  13.2516  13.3444  13.3747  13.7852  14.1464  14.3543
    14.6084  15.3962  15.4479  15.7663

          k = 0.3207 0.5774 0.0000 (  2729 PWs)   bands (ev):

   -14.4276 -14.1644 -12.2339  -1.8701  -1.4897   8.9426  11.1158  11.2326
    11.7760  13.0209  13.2556  13.3437  13.3782  13.7788  14.1419  14.3561
    14.6030  15.4013  15.4487  15.7634

          k = 0.3210 0.5774 0.0000 (  2729 PWs)   bands (ev):

   -14.4244 -14.1669 -12.2349  -1.8657  -1.4941   8.9423  11.1177  11.2329
    11.7770  13.0261  13.2596  13.3428  13.3817  13.7724  14.1376  14.3578
    14.5978  15.4065  15.4495  15.7603

          k = 0.3213 0.5774 0.0000 (  2729 PWs)   bands (ev):

   -14.4212 -14.1694 -12.2358  -1.8612  -1.4986   8.9420  11.1196  11.2332
    11.7780  13.0313  13.2635  13.3418  13.3852  13.7660  14.1333  14.3596
    14.5926  15.4116  15.4503  15.7573

          k = 0.3217 0.5774 0.0000 (  2729 PWs)   bands (ev):

   -14.4179 -14.1720 -12.2368  -1.8567  -1.5030   8.9417  11.1215  11.2335
    11.7790  13.0365  13.2675  13.3406  13.3887  13.7596  14.1292  14.3614
    14.5875  15.4168  15.4511  15.7541

          k = 0.3220 0.5774 0.0000 (  2729 PWs)   bands (ev):

   -14.4147 -14.1746 -12.2377  -1.8522  -1.5075   8.9414  11.1234  11.2337
    11.7799  13.0417  13.2715  13.3394  13.3920  13.7533  14.1252  14.3632
    14.5824  15.4220  15.4519  15.7509

          k = 0.3223 0.5774 0.0000 (  2729 PWs)   bands (ev):

   -14.4115 -14.1772 -12.2385  -1.8477  -1.5119   8.9412  11.1253  11.2339
    11.7808  13.0469  13.2755  13.3380  13.3954  13.7469  14.1213  14.3650
    14.5775  15.4272  15.4527  15.7476

          k = 0.3227 0.5774 0.0000 (  2729 PWs)   bands (ev):

   -14.4083 -14.1799 -12.2394  -1.8432  -1.5164   8.9409  11.1272  11.2340
    11.7817  13.0521  13.2794  13.3365  13.3987  13.7407  14.1175  14.3668
    14.5725  15.4323  15.4534  15.7443

          k = 0.3230 0.5774 0.0000 (  2729 PWs)   bands (ev):

   -14.4050 -14.1825 -12.2402  -1.8387  -1.5209   8.9406  11.1291  11.2341
    11.7825  13.0573  13.2834  13.3349  13.4019  13.7344  14.1138  14.3687
    14.5677  15.4375  15.4542  15.7408

          k = 0.3233 0.5774 0.0000 (  2729 PWs)   bands (ev):

   -14.4018 -14.1852 -12.2409  -1.8342  -1.5254   8.9404  11.1310  11.2341
    11.7833  13.0625  13.2874  13.3332  13.4051  13.7282  14.1103  14.3705
    14.5629  15.4427  15.4549  15.7373

          k = 0.3237 0.5774 0.0000 (  2729 PWs)   bands (ev):

   -14.3986 -14.1879 -12.2417  -1.8297  -1.5298   8.9401  11.1328  11.2340
    11.7841  13.0677  13.2914  13.3313  13.4081  13.7221  14.1069  14.3724
    14.5583  15.4479  15.4556  15.7338

          k = 0.3240 0.5774 0.0000 (  2729 PWs)   bands (ev):

   -14.3953 -14.1907 -12.2424  -1.8252  -1.5343   8.9399  11.1347  11.2340
    11.7849  13.0729  13.2953  13.3293  13.4112  13.7160  14.1036  14.3743
    14.5536  15.4531  15.4563  15.7301

          k = 0.3243 0.5774 0.0000 (  2729 PWs)   bands (ev):

   -14.3921 -14.1935 -12.2431  -1.8206  -1.5388   8.9397  11.1365  11.2338
    11.7856  13.0782  13.2993  13.3272  13.4141  13.7099  14.1004  14.3762
    14.5491  15.4570  15.4583  15.7264

          k = 0.3247 0.5774 0.0000 (  2729 PWs)   bands (ev):

   -14.3888 -14.1962 -12.2437  -1.8161  -1.5433   8.9395  11.1383  11.2336
    11.7863  13.0834  13.3033  13.3249  13.4170  13.7039  14.0974  14.3781
    14.5446  15.4577  15.4636  15.7227

          k = 0.3250 0.5774 0.0000 (  2729 PWs)   bands (ev):

   -14.3856 -14.1991 -12.2444  -1.8116  -1.5478   8.9393  11.1402  11.2334
    11.7870  13.0887  13.3073  13.3226  13.4197  13.6980  14.0944  14.3801
    14.5402  15.4584  15.4688  15.7188

          k = 0.3253 0.5774 0.0000 (  2729 PWs)   bands (ev):

   -14.3823 -14.2019 -12.2450  -1.8070  -1.5524   8.9391  11.1420  11.2331
    11.7876  13.0939  13.3112  13.3201  13.4224  13.6922  14.0916  14.3820
    14.5359  15.4590  15.4740  15.7149

          k = 0.3257 0.5774 0.0000 (  2729 PWs)   bands (ev):

   -14.3791 -14.2048 -12.2455  -1.8025  -1.5569   8.9389  11.1438  11.2327
    11.7882  13.0992  13.3152  13.3174  13.4249  13.6864  14.0890  14.3840
    14.5317  15.4596  15.4792  15.7109

          k = 0.3260 0.5774 0.0000 (  2729 PWs)   bands (ev):

   -14.3758 -14.2077 -12.2461  -1.7979  -1.5614   8.9387  11.1456  11.2323
    11.7888  13.1044  13.3147  13.3192  13.4273  13.6808  14.0864  14.3860
    14.5275  15.4603  15.4845  15.7069

          k = 0.3263 0.5774 0.0000 (  2729 PWs)   bands (ev):

   -14.3726 -14.2106 -12.2466  -1.7934  -1.5659   8.9386  11.1474  11.2319
    11.7894  13.1097  13.3118  13.3232  13.4296  13.6752  14.0840  14.3880
    14.5235  15.4608  15.4897  15.7028

          k = 0.3267 0.5774 0.0000 (  2729 PWs)   bands (ev):

   -14.3693 -14.2135 -12.2471  -1.7888  -1.5705   8.9384  11.1492  11.2313
    11.7900  13.1150  13.3088  13.3271  13.4317  13.6698  14.0817  14.3900
    14.5195  15.4614  15.4950  15.6986

          k = 0.3270 0.5774 0.0000 (  2729 PWs)   bands (ev):

   -14.3660 -14.2165 -12.2475  -1.7843  -1.5750   8.9383  11.1509  11.2308
    11.7905  13.1202  13.3056  13.3311  13.4336  13.6645  14.0795  14.3921
    14.5155  15.4620  15.5002  15.6943

          k = 0.3273 0.5774 0.0000 (  2729 PWs)   bands (ev):

   -14.3627 -14.2195 -12.2479  -1.7797  -1.5796   8.9381  11.1527  11.2301
    11.7910  13.1255  13.3023  13.3351  13.4354  13.6594  14.0775  14.3941
    14.5117  15.4625  15.5055  15.6900

          k = 0.3277 0.5774 0.0000 (  2729 PWs)   bands (ev):

   -14.3595 -14.2225 -12.2483  -1.7752  -1.5841   8.9380  11.1545  11.2295
    11.7915  13.1308  13.2989  13.3391  13.4370  13.6544  14.0756  14.3962
    14.5079  15.4630  15.5107  15.6856

          k = 0.3280 0.5774 0.0000 (  2729 PWs)   bands (ev):

   -14.3562 -14.2255 -12.2487  -1.7706  -1.5887   8.9379  11.1562  11.2287
    11.7919  13.1361  13.2954  13.3430  13.4383  13.6496  14.0738  14.3983
    14.5042  15.4635  15.5160  15.6812

          k = 0.3283 0.5774 0.0000 (  2729 PWs)   bands (ev):

   -14.3529 -14.2286 -12.2490  -1.7660  -1.5933   8.9378  11.1580  11.2279
    11.7923  13.1414  13.2918  13.3470  13.4394  13.6451  14.0721  14.4004
    14.5006  15.4640  15.5213  15.6767

          k = 0.3287 0.5774 0.0000 (  2729 PWs)   bands (ev):

   -14.3496 -14.2317 -12.2493  -1.7614  -1.5979   8.9377  11.1597  11.2270
    11.7928  13.1467  13.2880  13.3510  13.4403  13.6407  14.0705  14.4025
    14.4971  15.4644  15.5265  15.6721

          k = 0.3290 0.5774 0.0000 (  2733 PWs)   bands (ev):

   -14.3463 -14.2348 -12.2496  -1.7569  -1.6024   8.9376  11.1614  11.2261
    11.7932  13.1520  13.2841  13.3549  13.4409  13.6366  14.0691  14.4046
    14.4937  15.4648  15.5318  15.6675

          k = 0.3293 0.5774 0.0000 (  2733 PWs)   bands (ev):

   -14.3430 -14.2379 -12.2499  -1.7523  -1.6070   8.9375  11.1631  11.2251
    11.7935  13.1573  13.2801  13.3589  13.4412  13.6328  14.0678  14.4068
    14.4903  15.4652  15.5371  15.6628

          k = 0.3297 0.5774 0.0000 (  2733 PWs)   bands (ev):

   -14.3398 -14.2411 -12.2501  -1.7477  -1.6116   8.9374  11.1648  11.2241
    11.7939  13.1626  13.2759  13.3629  13.4411  13.6292  14.0666  14.4089
    14.4870  15.4656  15.5424  15.6580

          k = 0.3300 0.5774 0.0000 (  2733 PWs)   bands (ev):

   -14.3365 -14.2442 -12.2503  -1.7431  -1.6162   8.9373  11.1665  11.2230
    11.7942  13.1679  13.2717  13.3669  13.4408  13.6260  14.0655  14.4111
    14.4838  15.4659  15.5477  15.6532

          k = 0.3303 0.5774 0.0000 (  2733 PWs)   bands (ev):

   -14.3332 -14.2474 -12.2505  -1.7385  -1.6208   8.9373  11.1682  11.2218
    11.7946  13.1733  13.2673  13.3708  13.4400  13.6230  14.0645  14.4133
    14.4807  15.4662  15.5530  15.6484

          k = 0.3307 0.5774 0.0000 (  2733 PWs)   bands (ev):

   -14.3298 -14.2507 -12.2506  -1.7339  -1.6255   8.9372  11.1699  11.2206
    11.7949  13.1786  13.2628  13.3748  13.4390  13.6204  14.0637  14.4155
    14.4776  15.4665  15.5583  15.6434

          k = 0.3310 0.5774 0.0000 (  2733 PWs)   bands (ev):

   -14.3265 -14.2539 -12.2507  -1.7293  -1.6301   8.9372  11.1716  11.2193
    11.7952  13.1839  13.2582  13.3788  13.4375  13.6182  14.0629  14.4178
    14.4747  15.4668  15.5636  15.6384

          k = 0.3313 0.5774 0.0000 (  2733 PWs)   bands (ev):

   -14.3232 -14.2572 -12.2508  -1.7247  -1.6347   8.9372  11.1733  11.2180
    11.7954  13.1893  13.2535  13.3827  13.4356  13.6163  14.0623  14.4200
    14.4718  15.4670  15.5690  15.6334

          k = 0.3317 0.5774 0.0000 (  2733 PWs)   bands (ev):

   -14.3199 -14.2605 -12.2509  -1.7200  -1.6393   8.9371  11.1749  11.2166
    11.7957  13.1946  13.2487  13.3867  13.4334  13.6148  14.0618  14.4223
    14.4690  15.4672  15.5743  15.6283

          k = 0.3320 0.5774 0.0000 (  2733 PWs)   bands (ev):

   -14.3166 -14.2638 -12.2509  -1.7154  -1.6440   8.9371  11.1766  11.2151
    11.7959  13.2000  13.2437  13.3907  13.4308  13.6136  14.0613  14.4246
    14.4663  15.4674  15.5796  15.6231

          k = 0.3323 0.5774 0.0000 (  2733 PWs)   bands (ev):

   -14.3133 -14.2671 -12.2509  -1.7108  -1.6486   8.9371  11.1782  11.2136
    11.7962  13.2053  13.2387  13.3946  13.4278  13.6127  14.0610  14.4269
    14.4636  15.4675  15.5849  15.6179

          k = 0.3327 0.5774 0.0000 (  2733 PWs)   bands (ev):

   -14.3099 -14.2705 -12.2509  -1.7062  -1.6533   8.9371  11.1798  11.2120
    11.7964  13.2107  13.2335  13.3986  13.4244  13.6122  14.0608  14.4292
    14.4610  15.4676  15.5903  15.6127

          k = 0.3330 0.5774 0.0000 (  2733 PWs)   bands (ev):

   -14.3066 -14.2739 -12.2509  -1.7015  -1.6579   8.9372  11.1814  11.2104
    11.7966  13.2161  13.2283  13.4026  13.4207  13.6120  14.0607  14.4316
    14.4586  15.4677  15.5956  15.6074

          k = 0.3333 0.5774 0.0000 (  2733 PWs)   bands (ev):

   -14.3033 -14.2773 -12.2508  -1.6969  -1.6626   8.9372  11.1831  11.2086
    11.7968  13.2214  13.2230  13.4065  13.4167  13.6121  14.0607  14.4339
    14.4562  15.4677  15.6007  15.6023

     Writing all to output data dir ./tmp/graphene.save/ :
     XML data file, pseudopotentials, collected wavefunctions

     init_run     :      2.60s CPU      2.80s WALL (       1 calls)
     electrons    :   3391.69s CPU   1743.55s WALL (       1 calls)

     Called by init_run:
     wfcinit      :      0.00s CPU      0.00s WALL (       1 calls)
     wfcinit:atom :      2.59s CPU      1.50s WALL (    3001 calls)
     wfcinit:wfcr :    116.32s CPU     64.65s WALL (    3001 calls)
     potinit      :      0.62s CPU      0.64s WALL (       1 calls)
     hinit0       :      0.73s CPU      0.77s WALL (       1 calls)

     Called by electrons:
     c_bands      :   3391.58s CPU   1743.49s WALL (       1 calls)
     v_of_rho     :      0.08s CPU      0.10s WALL (       1 calls)
     v_h          :      0.00s CPU      0.00s WALL (       1 calls)
     v_xc         :      0.08s CPU      0.09s WALL (       1 calls)
     newd         :      0.06s CPU      0.13s WALL (       1 calls)
     PAW_pot      :      0.12s CPU      0.12s WALL (       1 calls)

     Called by c_bands:
     init_us_2    :      3.76s CPU      2.33s WALL (    3001 calls)
     cegterg      :   3241.31s CPU   1657.72s WALL (    7572 calls)

     Called by sum_band:

     Called by *egterg:
     cdiaghg      :    201.51s CPU    109.98s WALL (  126959 calls)
     cegterg:over :    194.88s CPU     61.80s WALL (  123958 calls)
     cegterg:upda :    100.83s CPU     36.77s WALL (  123958 calls)
     cegterg:last :    273.76s CPU     68.83s WALL (   70639 calls)
     h_psi        :   2442.55s CPU   1384.22s WALL (  134531 calls)
     s_psi        :     30.00s CPU     17.70s WALL (  134531 calls)
     g_psi        :     45.96s CPU     16.57s WALL (  123958 calls)

     Called by h_psi:
     h_psi:calbec :     56.28s CPU     33.21s WALL (  134531 calls)
     vloc_psi     :   2295.09s CPU   1265.41s WALL (  134531 calls)
     add_vuspsi   :     68.65s CPU     76.28s WALL (  134531 calls)

     General routines
     calbec       :     55.50s CPU     32.80s WALL (  134531 calls)
     fft          :      0.47s CPU      0.47s WALL (      13 calls)
     ffts         :      0.42s CPU      0.42s WALL (       1 calls)
     fftw         :   1582.01s CPU    867.23s WALL ( 2766512 calls)
     interpolate  :      0.42s CPU      0.42s WALL (       1 calls)
     davcio       :      3.25s CPU      1.84s WALL (    6002 calls)


     PAW routines
     PAW_pot      :      0.12s CPU      0.12s WALL (       1 calls)

     PWSCF        :  56m36.05s CPU  29m 9.84s WALL


   This run was terminated on:  22:46:57   9Sep2025            

=------------------------------------------------------------------------------=
   JOB DONE.
=------------------------------------------------------------------------------=
