
     Program PWSCF v.7.4.1 starts on  9Sep2025 at 16:51:39 

     This program is part of the open-source Quantum ESPRESSO suite
     for quantum simulation of materials; please cite
         "P. Giannozzi et al., J. Phys.:Condens. Matter 21 395502 (2009);
         "P. Giannozzi et al., J. Phys.:Condens. Matter 29 465901 (2017);
         "P. Giannozzi et al., J. Chem. Phys. 152 154105 (2020);
          URL http://www.quantum-espresso.org", 
     in publications or presentations arising from this work. More details at
     http://www.quantum-espresso.org/quote

     Serial version
     22208 MiB available memory on the printing compute node when the environment starts

     Waiting for input...
     Reading input from standard input

     Current dimensions of program PWSCF are:
     Max number of different atomic species (ntypx) = 10
     Max number of k-points (npk) =  40000
     Max angular momentum in pseudopotentials (lmaxx) =  4
     file C.pbe-n-kjpaw_psl.1.0.0.UPF: wavefunction(s)  2S 2P renormalized


     G-vector sticks info
     --------------------
     sticks:   dense  smooth     PW     G-vecs:    dense   smooth      PW
     Sum         673     265     85                84597    21311    3883

     Using Slab Decomposition



     bravais-lattice index     =            4
     lattice parameter (alat)  =       4.6540  a.u.
     unit-cell volume          =     523.7946 (a.u.)^3
     number of atoms/cell      =            2
     number of atomic types    =            1
     number of electrons       =         8.00
     number of Kohn-Sham states=            8
     kinetic-energy cutoff     =      45.0000  Ry
     charge density cutoff     =     450.0000  Ry
     scf convergence threshold =      1.0E-08
     mixing beta               =       0.7000
     number of iterations used =            8  plain     mixing
     Exchange-correlation= SLA  PW   PBX  PBC
                           (   1   4   3   4   0   0   0)

     celldm(1)=   4.654000  celldm(2)=   0.000000  celldm(3)=   6.000000
     celldm(4)=   0.000000  celldm(5)=   0.000000  celldm(6)=   0.000000

     crystal axes: (cart. coord. in units of alat)
               a(1) = (   1.000000   0.000000   0.000000 )  
               a(2) = (  -0.500000   0.866025   0.000000 )  
               a(3) = (   0.000000   0.000000   6.000000 )  

     reciprocal axes: (cart. coord. in units 2 pi/alat)
               b(1) = (  1.000000  0.577350 -0.000000 )  
               b(2) = (  0.000000  1.154701  0.000000 )  
               b(3) = (  0.000000 -0.000000  0.166667 )  


     PseudoPot. # 1 for C  read from file:
     ../../../../../pseudos/C.pbe-n-kjpaw_psl.1.0.0.UPF
     MD5 check sum: 5d2aebdfa2cae82b50a7e79e9516da0f
     Pseudo is Projector augmented-wave + core cor, Zval =  4.0
     Generated using "atomic" code by A. Dal Corso  v.5.1
     Shape of augmentation charge: PSQ
     Using radial grid of 1073 points,  4 beta functions with: 
                l(1) =   0
                l(2) =   0
                l(3) =   1
                l(4) =   1
     Q(r) pseudized with 0 coefficients 


     atomic species   valence    mass     pseudopotential
     C                 4.00    12.01070     C ( 1.00)

     24 Sym. Ops., with inversion, found (12 have fractional translation)



   Cartesian axes

     site n.     atom                  positions (alat units)
         1        C      tau(   1) = (   0.0000000   0.0000000   0.0000000  )
         2        C      tau(   2) = (   0.0000000   0.5773503   0.0000000  )

     number of k points=    24  Gaussian smearing, width (Ry)=  0.0100
                       cart. coord. in units 2pi/alat
        k(    1) = (   0.0000000   0.0000000   0.0000000), wk =   0.0102041
        k(    2) = (   0.0000000   0.0824786   0.0000000), wk =   0.0612245
        k(    3) = (   0.0000000   0.1649572   0.0000000), wk =   0.0612245
        k(    4) = (   0.0000000   0.2474358   0.0000000), wk =   0.0612245
        k(    5) = (   0.0000000   0.3299144   0.0000000), wk =   0.0612245
        k(    6) = (   0.0000000   0.4123930   0.0000000), wk =   0.0612245
        k(    7) = (   0.0000000   0.4948717   0.0000000), wk =   0.0612245
        k(    8) = (   0.0000000  -0.5773503   0.0000000), wk =   0.0306122
        k(    9) = (   0.0714286   0.1237179   0.0000000), wk =   0.0612245
        k(   10) = (   0.0714286   0.2061965   0.0000000), wk =   0.1224490
        k(   11) = (   0.0714286   0.2886751   0.0000000), wk =   0.1224490
        k(   12) = (   0.0714286   0.3711537   0.0000000), wk =   0.1224490
        k(   13) = (   0.0714286   0.4536324   0.0000000), wk =   0.1224490
        k(   14) = (   0.0714286   0.5361110   0.0000000), wk =   0.1224490
        k(   15) = (   0.1428571   0.2474358   0.0000000), wk =   0.0612245
        k(   16) = (   0.1428571   0.3299144   0.0000000), wk =   0.1224490
        k(   17) = (   0.1428571   0.4123930   0.0000000), wk =   0.1224490
        k(   18) = (   0.1428571   0.4948717   0.0000000), wk =   0.1224490
        k(   19) = (   0.1428571   0.5773503   0.0000000), wk =   0.0612245
        k(   20) = (   0.2142857   0.3711537   0.0000000), wk =   0.0612245
        k(   21) = (   0.2142857   0.4536324   0.0000000), wk =   0.1224490
        k(   22) = (   0.2142857   0.5361110   0.0000000), wk =   0.1224490
        k(   23) = (   0.2857143   0.4948717   0.0000000), wk =   0.0612245
        k(   24) = (   0.2857143   0.5773503   0.0000000), wk =   0.0612245

     Dense  grid:    84597 G-vectors     FFT dimensions: (  36,  36, 192)

     Smooth grid:    21311 G-vectors     FFT dimensions: (  24,  24, 120)

     Estimated max dynamical RAM per process >     119.15 MB

     Initial potential from superposition of free atoms

     starting charge       7.9999, renormalised to       8.0000

     negative rho (up, down):  1.033E-05 0.000E+00
     Starting wfcs are    8 randomized atomic wfcs

     total cpu time spent up to now is        2.0 secs

     Self-consistent Calculation

     iteration #  1     ecut=    45.00 Ry     beta= 0.70
     Davidson diagonalization with overlap
     ethr =  1.00E-02,  avg # of iterations =  5.4

     negative rho (up, down):  2.551E-05 0.000E+00

     total cpu time spent up to now is        3.7 secs

     total energy              =     -36.85829466 Ry
     estimated scf accuracy    <       0.19752869 Ry

     iteration #  2     ecut=    45.00 Ry     beta= 0.70
     Davidson diagonalization with overlap
     ethr =  2.47E-03,  avg # of iterations =  3.0

     negative rho (up, down):  3.652E-05 0.000E+00

     total cpu time spent up to now is        5.0 secs

     total energy              =     -36.88678773 Ry
     estimated scf accuracy    <       0.00214749 Ry

     iteration #  3     ecut=    45.00 Ry     beta= 0.70
     Davidson diagonalization with overlap
     c_bands:  1 eigenvalues not converged
     ethr =  2.68E-05,  avg # of iterations =  9.9

     negative rho (up, down):  4.388E-05 0.000E+00

     total cpu time spent up to now is        7.1 secs

     total energy              =     -36.88703734 Ry
     estimated scf accuracy    <       0.00015825 Ry

     iteration #  4     ecut=    45.00 Ry     beta= 0.70
     Davidson diagonalization with overlap
     ethr =  1.98E-06,  avg # of iterations =  3.9

     negative rho (up, down):  4.484E-05 0.000E+00

     total cpu time spent up to now is        8.3 secs

     total energy              =     -36.88704640 Ry
     estimated scf accuracy    <       0.00000131 Ry

     iteration #  5     ecut=    45.00 Ry     beta= 0.70
     Davidson diagonalization with overlap
     ethr =  1.63E-08,  avg # of iterations =  3.0

     negative rho (up, down):  4.499E-05 0.000E+00

     total cpu time spent up to now is        9.6 secs

     total energy              =     -36.88704721 Ry
     estimated scf accuracy    <       0.00000002 Ry

     iteration #  6     ecut=    45.00 Ry     beta= 0.70
     Davidson diagonalization with overlap
     ethr =  2.87E-10,  avg # of iterations =  2.4

     negative rho (up, down):  4.505E-05 0.000E+00

     total cpu time spent up to now is       10.8 secs

     End of self-consistent calculation

          k = 0.0000 0.0000 0.0000 (  2603 PWs)   bands (ev):

   -21.2249  -9.3131  -4.7172  -4.7172   1.5498   2.4487   2.8672   4.8427

          k = 0.0000 0.0825 0.0000 (  2617 PWs)   bands (ev):

   -21.1041  -9.1686  -5.2026  -4.9716   1.7142   2.6143   3.0342   5.0070

          k = 0.0000 0.1650 0.0000 (  2637 PWs)   bands (ev):

   -20.7428  -8.7378  -6.4736  -5.6024   2.2072   3.1105   3.5351   5.4985

          k = 0.0000 0.2474 0.0000 (  2643 PWs)   bands (ev):

   -20.1439  -8.1834  -8.0303  -6.3657   3.0281   3.9328   4.3697   6.2746

          k = 0.0000 0.3299 0.0000 (  2649 PWs)   bands (ev):

   -19.3134 -10.0618  -7.0788  -7.0678   4.1737   4.5484   5.1591   5.5336

          k = 0.0000 0.4124 0.0000 (  2664 PWs)   bands (ev):

   -18.2621 -11.9419  -7.6383  -5.9018   2.6117   5.6152   6.0385   6.5876

          k = 0.0000 0.4949 0.0000 (  2666 PWs)   bands (ev):

   -17.0198 -13.7091  -7.9907  -4.6912   0.8636   5.8193   7.4430   8.3719

          k = 0.0000-0.5774 0.0000 (  2688 PWs)   bands (ev):

   -15.9677 -14.9403  -8.1107  -4.0334   0.0183   5.7607   9.4406   9.5873

          k = 0.0714 0.1237 0.0000 (  2629 PWs)   bands (ev):

   -20.8631  -8.8809  -6.0151  -5.4807   2.0430   2.9453   3.3682   5.3350

          k = 0.0714 0.2062 0.0000 (  2658 PWs)   bands (ev):

   -20.3830  -8.3114  -7.3977  -6.2880   2.7004   3.6055   4.0363   5.9879

          k = 0.0714 0.2887 0.0000 (  2658 PWs)   bands (ev):

   -19.6683  -9.1267  -7.4744  -7.0930   3.6846   4.5783   5.0377   5.4742

          k = 0.0714 0.3712 0.0000 (  2667 PWs)   bands (ev):

   -18.7271 -10.9745  -7.7613  -6.4022   3.5123   4.9905   5.9251   6.3586

          k = 0.0714 0.4536 0.0000 (  2682 PWs)   bands (ev):

   -17.5763 -12.7873  -8.2315  -5.1801   1.6418   6.3863   6.6765   7.5468

          k = 0.0714 0.5361 0.0000 (  2676 PWs)   bands (ev):

   -16.2926 -14.4171  -8.4730  -4.1150   0.2270   6.3104   8.5582   9.4482

          k = 0.1429 0.2474 0.0000 (  2651 PWs)   bands (ev):

   -19.7870  -8.5735  -7.6110  -7.3654   3.5216   4.4274   4.8717   5.7989

          k = 0.1429 0.3299 0.0000 (  2672 PWs)   bands (ev):

   -18.9615 -10.0712  -8.3284  -6.6577   4.1143   4.6677   5.5737   6.0401

          k = 0.1429 0.4124 0.0000 (  2683 PWs)   bands (ev):

   -17.9187 -11.7690  -8.9928  -5.4991   2.3379   6.1316   7.0238   7.5329

          k = 0.1429 0.4949 0.0000 (  2685 PWs)   bands (ev):

   -16.6905 -13.4494  -9.3831  -4.2796   0.7029   7.7286   7.9602   8.7257

          k = 0.1429 0.5774 0.0000 (  2689 PWs)   bands (ev):

   -15.6577 -14.6411  -9.5125  -3.5923  -0.1309   7.7116   9.8605  10.0385

          k = 0.2143 0.3712 0.0000 (  2679 PWs)   bands (ev):

   -18.0339 -11.1058  -9.6019  -5.6093   2.6336   5.9711   6.8392   7.3744

          k = 0.2143 0.4536 0.0000 (  2689 PWs)   bands (ev):

   -16.9061 -12.4490 -10.4169  -4.3971   1.1024   7.5806   8.3142   9.0341

          k = 0.2143 0.5361 0.0000 (  2705 PWs)   bands (ev):

   -15.6597 -13.8936 -10.7626  -3.2709  -0.1963   9.4179   9.4274   9.6631

          k = 0.2857 0.4949 0.0000 (  2705 PWs)   bands (ev):

   -15.7315 -13.1998 -11.5730  -3.1753  -0.1649   9.0862   9.2937  10.8395

          k = 0.2857 0.5774 0.0000 (  2697 PWs)   bands (ev):

   -14.7307 -14.0608 -11.9684  -2.2843  -1.0648   9.0570  10.9237  11.0420

     the Fermi energy is    -1.6746 ev

!    total energy              =     -36.88704722 Ry
     total all-electron energy =      -152.415243 Ry
     estimated scf accuracy    <          5.9E-10 Ry
     smearing contrib. (-TS)   =      -0.00000000 Ry
     internal energy E=F+TS    =     -36.88704722 Ry

     The total energy is F=E-TS. E is the sum of the following terms:
     one-electron contribution =    -154.20887297 Ry
     hartree contribution      =      78.73902346 Ry
     xc contribution           =      -9.27927780 Ry
     ewald contribution        =      60.19597803 Ry
     one-center paw contrib.   =     -12.33389794 Ry

     convergence has been achieved in   6 iterations

     Writing all to output data dir ./tmp/graphene.save/ :
     XML data file, charge density, pseudopotentials, collected wavefunctions

     init_run     :      2.13s CPU      1.85s WALL (       1 calls)
     electrons    :     15.33s CPU      8.82s WALL (       1 calls)

     Called by init_run:
     wfcinit      :      0.93s CPU      0.60s WALL (       1 calls)
     potinit      :      0.56s CPU      0.58s WALL (       1 calls)
     hinit0       :      0.58s CPU      0.58s WALL (       1 calls)

     Called by electrons:
     c_bands      :     11.74s CPU      6.28s WALL (       6 calls)
     sum_band     :      2.06s CPU      1.17s WALL (       6 calls)
     v_of_rho     :      0.83s CPU      0.66s WALL (       7 calls)
     newd         :      0.28s CPU      0.36s WALL (       7 calls)
     PAW_pot      :      0.45s CPU      0.46s WALL (       7 calls)
     mix_rho      :      0.10s CPU      0.06s WALL (       6 calls)

     Called by c_bands:
     init_us_2    :      0.32s CPU      0.17s WALL (     312 calls)
     cegterg      :     11.30s CPU      6.05s WALL (     144 calls)

     Called by *egterg:
     cdiaghg      :      0.25s CPU      0.11s WALL (     806 calls)
     h_psi        :     10.72s CPU      5.95s WALL (     830 calls)
     s_psi        :      0.11s CPU      0.07s WALL (     830 calls)
     g_psi        :      0.10s CPU      0.04s WALL (     662 calls)

     Called by h_psi:
     h_psi:calbec :      0.22s CPU      0.11s WALL (     830 calls)
     vloc_psi     :     10.18s CPU      5.64s WALL (     830 calls)
     add_vuspsi   :      0.25s CPU      0.17s WALL (     830 calls)

     General routines
     calbec       :      0.26s CPU      0.13s WALL (     974 calls)
     fft          :      0.75s CPU      0.67s WALL (      89 calls)
     ffts         :      0.40s CPU      0.40s WALL (      13 calls)
     fftw         :      8.40s CPU      4.87s WALL (    8636 calls)
     interpolate  :      0.42s CPU      0.42s WALL (       7 calls)


     PWSCF        :     17.67s CPU     10.82s WALL


   This run was terminated on:  16:51:50   9Sep2025            

=------------------------------------------------------------------------------=
   JOB DONE.
=------------------------------------------------------------------------------=
