
     Program PWSCF v.7.4.1 starts on  9Sep2025 at 17: 1:21 

     This program is part of the open-source Quantum ESPRESSO suite
     for quantum simulation of materials; please cite
         "P. Giannozzi et al., J. Phys.:Condens. Matter 21 395502 (2009);
         "P. Giannozzi et al., J. Phys.:Condens. Matter 29 465901 (2017);
         "P. Giannozzi et al., J. Chem. Phys. 152 154105 (2020);
          URL http://www.quantum-espresso.org", 
     in publications or presentations arising from this work. More details at
     http://www.quantum-espresso.org/quote

     Serial version
     22093 MiB available memory on the printing compute node when the environment starts

     Waiting for input...
     Reading input from standard input

     Current dimensions of program PWSCF are:
     Max number of different atomic species (ntypx) = 10
     Max number of k-points (npk) =  40000
     Max angular momentum in pseudopotentials (lmaxx) =  4
     file C.pbe-n-kjpaw_psl.1.0.0.UPF: wavefunction(s)  2S 2P renormalized


     G-vector sticks info
     --------------------
     sticks:   dense  smooth     PW     G-vecs:    dense   smooth      PW
     Sum         673     271     85                86543    21859    3993

     Using Slab Decomposition



     bravais-lattice index     =            4
     lattice parameter (alat)  =       4.6940  a.u.
     unit-cell volume          =     537.4167 (a.u.)^3
     number of atoms/cell      =            2
     number of atomic types    =            1
     number of electrons       =         8.00
     number of Kohn-Sham states=            8
     kinetic-energy cutoff     =      45.0000  Ry
     charge density cutoff     =     450.0000  Ry
     scf convergence threshold =      1.0E-08
     mixing beta               =       0.7000
     number of iterations used =            8  plain     mixing
     Exchange-correlation= SLA  PW   PBX  PBC
                           (   1   4   3   4   0   0   0)

     celldm(1)=   4.694000  celldm(2)=   0.000000  celldm(3)=   6.000000
     celldm(4)=   0.000000  celldm(5)=   0.000000  celldm(6)=   0.000000

     crystal axes: (cart. coord. in units of alat)
               a(1) = (   1.000000   0.000000   0.000000 )  
               a(2) = (  -0.500000   0.866025   0.000000 )  
               a(3) = (   0.000000   0.000000   6.000000 )  

     reciprocal axes: (cart. coord. in units 2 pi/alat)
               b(1) = (  1.000000  0.577350 -0.000000 )  
               b(2) = (  0.000000  1.154701  0.000000 )  
               b(3) = (  0.000000 -0.000000  0.166667 )  


     PseudoPot. # 1 for C  read from file:
     ../../../../../pseudos/C.pbe-n-kjpaw_psl.1.0.0.UPF
     MD5 check sum: 5d2aebdfa2cae82b50a7e79e9516da0f
     Pseudo is Projector augmented-wave + core cor, Zval =  4.0
     Generated using "atomic" code by A. Dal Corso  v.5.1
     Shape of augmentation charge: PSQ
     Using radial grid of 1073 points,  4 beta functions with: 
                l(1) =   0
                l(2) =   0
                l(3) =   1
                l(4) =   1
     Q(r) pseudized with 0 coefficients 


     atomic species   valence    mass     pseudopotential
     C                 4.00    12.01070     C ( 1.00)

     24 Sym. Ops., with inversion, found (12 have fractional translation)



   Cartesian axes

     site n.     atom                  positions (alat units)
         1        C      tau(   1) = (   0.0000000   0.0000000   0.0000000  )
         2        C      tau(   2) = (   0.0000000   0.5773503   0.0000000  )

     number of k points=    12  Gaussian smearing, width (Ry)=  0.0100
                       cart. coord. in units 2pi/alat
        k(    1) = (   0.0000000   0.0000000   0.0000000), wk =   0.0246914
        k(    2) = (   0.0000000   0.1283001   0.0000000), wk =   0.1481481
        k(    3) = (   0.0000000   0.2566001   0.0000000), wk =   0.1481481
        k(    4) = (   0.0000000   0.3849002   0.0000000), wk =   0.1481481
        k(    5) = (   0.0000000   0.5132002   0.0000000), wk =   0.1481481
        k(    6) = (   0.1111111   0.1924501   0.0000000), wk =   0.1481481
        k(    7) = (   0.1111111   0.3207501   0.0000000), wk =   0.2962963
        k(    8) = (   0.1111111   0.4490502   0.0000000), wk =   0.2962963
        k(    9) = (   0.1111111   0.5773503   0.0000000), wk =   0.1481481
        k(   10) = (   0.2222222   0.3849002   0.0000000), wk =   0.1481481
        k(   11) = (   0.2222222   0.5132002   0.0000000), wk =   0.2962963
        k(   12) = (   0.3333333   0.5773503   0.0000000), wk =   0.0493827

     Dense  grid:    86543 G-vectors     FFT dimensions: (  36,  36, 192)

     Smooth grid:    21859 G-vectors     FFT dimensions: (  24,  24, 125)

     Estimated max dynamical RAM per process >     117.51 MB

     Initial potential from superposition of free atoms

     starting charge       7.9999, renormalised to       8.0000

     negative rho (up, down):  1.080E-05 0.000E+00
     Starting wfcs are    8 randomized atomic wfcs

     total cpu time spent up to now is        1.4 secs

     Self-consistent Calculation

     iteration #  1     ecut=    45.00 Ry     beta= 0.70
     Davidson diagonalization with overlap
     ethr =  1.00E-02,  avg # of iterations =  5.5

     negative rho (up, down):  2.532E-05 0.000E+00

     total cpu time spent up to now is        2.4 secs

     total energy              =     -36.85917001 Ry
     estimated scf accuracy    <       0.18391349 Ry

     iteration #  2     ecut=    45.00 Ry     beta= 0.70
     Davidson diagonalization with overlap
     ethr =  2.30E-03,  avg # of iterations =  3.2

     negative rho (up, down):  3.626E-05 0.000E+00

     total cpu time spent up to now is        3.2 secs

     total energy              =     -36.88538379 Ry
     estimated scf accuracy    <       0.00209726 Ry

     iteration #  3     ecut=    45.00 Ry     beta= 0.70
     Davidson diagonalization with overlap
     ethr =  2.62E-05,  avg # of iterations =  8.5

     negative rho (up, down):  4.345E-05 0.000E+00

     total cpu time spent up to now is        4.4 secs

     total energy              =     -36.88561010 Ry
     estimated scf accuracy    <       0.00015495 Ry

     iteration #  4     ecut=    45.00 Ry     beta= 0.70
     Davidson diagonalization with overlap
     ethr =  1.94E-06,  avg # of iterations =  4.2

     negative rho (up, down):  4.437E-05 0.000E+00

     total cpu time spent up to now is        5.2 secs

     total energy              =     -36.88561901 Ry
     estimated scf accuracy    <       0.00000117 Ry

     iteration #  5     ecut=    45.00 Ry     beta= 0.70
     Davidson diagonalization with overlap
     ethr =  1.46E-08,  avg # of iterations =  2.8

     negative rho (up, down):  4.449E-05 0.000E+00

     total cpu time spent up to now is        6.1 secs

     total energy              =     -36.88561972 Ry
     estimated scf accuracy    <       0.00000002 Ry

     iteration #  6     ecut=    45.00 Ry     beta= 0.70
     Davidson diagonalization with overlap
     ethr =  2.82E-10,  avg # of iterations =  2.6

     negative rho (up, down):  4.454E-05 0.000E+00

     total cpu time spent up to now is        6.8 secs

     End of self-consistent calculation

          k = 0.0000 0.0000 0.0000 (  2641 PWs)   bands (ev):

   -21.1410  -9.2629  -4.8480  -4.8480   1.5074   2.3960   2.8079   4.7450

          k = 0.0000 0.1283 0.0000 (  2699 PWs)   bands (ev):

   -20.8535  -8.9212  -5.9542  -5.4072   1.8985   2.7897   3.2052   5.1353

          k = 0.0000 0.2566 0.0000 (  2715 PWs)   bands (ev):

   -19.9968  -8.4762  -7.9141  -6.5372   3.0704   3.9625   4.3966   6.0058

          k = 0.0000 0.3849 0.0000 (  2719 PWs)   bands (ev):

   -18.5926 -11.3694  -7.5369  -6.3217   3.0375   5.0057   5.7340   5.9448

          k = 0.0000 0.5132 0.0000 (  2748 PWs)   bands (ev):

   -16.7233 -14.0682  -8.0896  -4.5194   0.4084   5.4247   7.7261   8.6404

          k = 0.1111 0.1925 0.0000 (  2729 PWs)   bands (ev):

   -20.2814  -8.2461  -7.4993  -6.5261   2.6807   3.5748   4.0001   5.9126

          k = 0.1111 0.3208 0.0000 (  2744 PWs)   bands (ev):

   -19.1507  -9.9205  -7.8847  -6.9367   4.2406   4.2537   5.1490   5.5886

          k = 0.1111 0.4491 0.0000 (  2743 PWs)   bands (ev):

   -17.5009 -12.6395  -8.7519  -5.1474   1.4804   6.5282   6.8049   7.4507

          k = 0.1111 0.5774 0.0000 (  2741 PWs)   bands (ev):

   -15.8137 -14.7219  -9.0472  -3.8436  -0.1986   6.6096   9.5091   9.6763

          k = 0.2222 0.3849 0.0000 (  2781 PWs)   bands (ev):

   -17.7711 -11.4340  -9.8532  -5.3871   2.0839   6.1776   7.0167   7.5727

          k = 0.2222 0.5132 0.0000 (  2767 PWs)   bands (ev):

   -15.9555 -13.5071 -10.8427  -3.5521  -0.1036   8.8094   9.0412   9.4597

          k = 0.3333 0.5774 0.0000 (  2769 PWs)   bands (ev):

   -14.3318 -14.3318 -12.1993  -1.7856  -1.7856   8.7997  10.9383  10.9385

     the Fermi energy is    -1.7856 ev

!    total energy              =     -36.88561973 Ry
     total all-electron energy =      -152.413815 Ry
     estimated scf accuracy    <          6.7E-10 Ry
     smearing contrib. (-TS)   =      -0.00027861 Ry
     internal energy E=F+TS    =     -36.88534112 Ry

     The total energy is F=E-TS. E is the sum of the following terms:
     one-electron contribution =    -153.19602421 Ry
     hartree contribution      =      78.20089787 Ry
     xc contribution           =      -9.24098106 Ry
     ewald contribution        =      59.68301699 Ry
     one-center paw contrib.   =     -12.33225072 Ry

     convergence has been achieved in   6 iterations

     Writing all to output data dir ./tmp/graphene.save/ :
     XML data file, charge density, pseudopotentials, collected wavefunctions

     init_run     :      1.38s CPU      1.27s WALL (       1 calls)
     electrons    :      9.10s CPU      5.45s WALL (       1 calls)

     Called by init_run:
     wfcinit      :      0.41s CPU      0.26s WALL (       1 calls)
     potinit      :      0.32s CPU      0.34s WALL (       1 calls)
     hinit0       :      0.57s CPU      0.58s WALL (       1 calls)

     Called by electrons:
     c_bands      :      5.91s CPU      3.15s WALL (       6 calls)
     sum_band     :      1.68s CPU      0.89s WALL (       6 calls)
     v_of_rho     :      0.79s CPU      0.67s WALL (       7 calls)
     newd         :      0.28s CPU      0.37s WALL (       7 calls)
     PAW_pot      :      0.46s CPU      0.46s WALL (       7 calls)
     mix_rho      :      0.11s CPU      0.05s WALL (       6 calls)

     Called by c_bands:
     init_us_2    :      0.16s CPU      0.09s WALL (     156 calls)
     cegterg      :      5.69s CPU      3.03s WALL (      72 calls)

     Called by *egterg:
     cdiaghg      :      0.12s CPU      0.05s WALL (     394 calls)
     h_psi        :      5.33s CPU      2.94s WALL (     406 calls)
     s_psi        :      0.05s CPU      0.04s WALL (     406 calls)
     g_psi        :      0.05s CPU      0.02s WALL (     322 calls)

     Called by h_psi:
     h_psi:calbec :      0.11s CPU      0.06s WALL (     406 calls)
     vloc_psi     :      5.08s CPU      2.80s WALL (     406 calls)
     add_vuspsi   :      0.11s CPU      0.07s WALL (     406 calls)

     General routines
     calbec       :      0.13s CPU      0.07s WALL (     478 calls)
     fft          :      0.77s CPU      0.67s WALL (      89 calls)
     ffts         :      0.18s CPU      0.17s WALL (      13 calls)
     fftw         :      4.26s CPU      2.47s WALL (    4270 calls)
     interpolate  :      0.18s CPU      0.18s WALL (       7 calls)


     PWSCF        :     10.68s CPU      6.87s WALL


   This run was terminated on:  17: 1:27   9Sep2025            

=------------------------------------------------------------------------------=
   JOB DONE.
=------------------------------------------------------------------------------=
