
     Program PWSCF v.7.4.1 starts on  9Sep2025 at 16:49:54 

     This program is part of the open-source Quantum ESPRESSO suite
     for quantum simulation of materials; please cite
         "P. Giannozzi et al., J. Phys.:Condens. Matter 21 395502 (2009);
         "P. Giannozzi et al., J. Phys.:Condens. Matter 29 465901 (2017);
         "P. Giannozzi et al., J. Chem. Phys. 152 154105 (2020);
          URL http://www.quantum-espresso.org", 
     in publications or presentations arising from this work. More details at
     http://www.quantum-espresso.org/quote

     Serial version
     21808 MiB available memory on the printing compute node when the environment starts

     Waiting for input...
     Reading input from standard input

     Current dimensions of program PWSCF are:
     Max number of different atomic species (ntypx) = 10
     Max number of k-points (npk) =  40000
     Max angular momentum in pseudopotentials (lmaxx) =  4
     file C.pbe-n-kjpaw_psl.1.0.0.UPF: wavefunction(s)  2S 2P renormalized


     G-vector sticks info
     --------------------
     sticks:   dense  smooth     PW     G-vecs:    dense   smooth      PW
     Sum         673     265     85                84597    21311    3823

     Using Slab Decomposition



     bravais-lattice index     =            4
     lattice parameter (alat)  =       4.6540  a.u.
     unit-cell volume          =     523.7946 (a.u.)^3
     number of atoms/cell      =            2
     number of atomic types    =            1
     number of electrons       =         8.00
     number of Kohn-Sham states=            8
     kinetic-energy cutoff     =      45.0000  Ry
     charge density cutoff     =     450.0000  Ry
     scf convergence threshold =      1.0E-08
     mixing beta               =       0.7000
     number of iterations used =            8  plain     mixing
     Exchange-correlation= SLA  PW   PBX  PBC
                           (   1   4   3   4   0   0   0)

     celldm(1)=   4.654000  celldm(2)=   0.000000  celldm(3)=   6.000000
     celldm(4)=   0.000000  celldm(5)=   0.000000  celldm(6)=   0.000000

     crystal axes: (cart. coord. in units of alat)
               a(1) = (   1.000000   0.000000   0.000000 )  
               a(2) = (  -0.500000   0.866025   0.000000 )  
               a(3) = (   0.000000   0.000000   6.000000 )  

     reciprocal axes: (cart. coord. in units 2 pi/alat)
               b(1) = (  1.000000  0.577350 -0.000000 )  
               b(2) = (  0.000000  1.154701  0.000000 )  
               b(3) = (  0.000000 -0.000000  0.166667 )  


     PseudoPot. # 1 for C  read from file:
     ../../../../../pseudos/C.pbe-n-kjpaw_psl.1.0.0.UPF
     MD5 check sum: 5d2aebdfa2cae82b50a7e79e9516da0f
     Pseudo is Projector augmented-wave + core cor, Zval =  4.0
     Generated using "atomic" code by A. Dal Corso  v.5.1
     Shape of augmentation charge: PSQ
     Using radial grid of 1073 points,  4 beta functions with: 
                l(1) =   0
                l(2) =   0
                l(3) =   1
                l(4) =   1
     Q(r) pseudized with 0 coefficients 


     atomic species   valence    mass     pseudopotential
     C                 4.00    12.01070     C ( 1.00)

     24 Sym. Ops., with inversion, found (12 have fractional translation)



   Cartesian axes

     site n.     atom                  positions (alat units)
         1        C      tau(   1) = (   0.0000000   0.0000000   0.0000000  )
         2        C      tau(   2) = (   0.0000000   0.5773503   0.0000000  )

     number of k points=     8  Gaussian smearing, width (Ry)=  0.0100
                       cart. coord. in units 2pi/alat
        k(    1) = (   0.0000000   0.0000000   0.0000000), wk =   0.0408163
        k(    2) = (   0.0000000   0.1649572   0.0000000), wk =   0.2448980
        k(    3) = (   0.0000000   0.3299144   0.0000000), wk =   0.2448980
        k(    4) = (   0.0000000   0.4948717   0.0000000), wk =   0.2448980
        k(    5) = (   0.1428571   0.2474358   0.0000000), wk =   0.2448980
        k(    6) = (   0.1428571   0.4123930   0.0000000), wk =   0.4897959
        k(    7) = (   0.1428571   0.5773503   0.0000000), wk =   0.2448980
        k(    8) = (   0.2857143   0.4948717   0.0000000), wk =   0.2448980

     Dense  grid:    84597 G-vectors     FFT dimensions: (  36,  36, 192)

     Smooth grid:    21311 G-vectors     FFT dimensions: (  24,  24, 120)

     Estimated max dynamical RAM per process >     113.94 MB

     Initial potential from superposition of free atoms

     starting charge       7.9999, renormalised to       8.0000

     negative rho (up, down):  1.033E-05 0.000E+00
     Starting wfcs are    8 randomized atomic wfcs

     total cpu time spent up to now is        1.8 secs

     Self-consistent Calculation

     iteration #  1     ecut=    45.00 Ry     beta= 0.70
     Davidson diagonalization with overlap
     ethr =  1.00E-02,  avg # of iterations =  5.4

     negative rho (up, down):  2.516E-05 0.000E+00

     total cpu time spent up to now is        2.7 secs

     total energy              =     -36.85937241 Ry
     estimated scf accuracy    <       0.19721598 Ry

     iteration #  2     ecut=    45.00 Ry     beta= 0.70
     Davidson diagonalization with overlap
     ethr =  2.47E-03,  avg # of iterations =  3.0

     negative rho (up, down):  3.666E-05 0.000E+00

     total cpu time spent up to now is        3.4 secs

     total energy              =     -36.88772935 Ry
     estimated scf accuracy    <       0.00210213 Ry

     iteration #  3     ecut=    45.00 Ry     beta= 0.70
     Davidson diagonalization with overlap
     ethr =  2.63E-05,  avg # of iterations =  9.6

     negative rho (up, down):  4.397E-05 0.000E+00

     total cpu time spent up to now is        4.4 secs

     total energy              =     -36.88794335 Ry
     estimated scf accuracy    <       0.00016203 Ry

     iteration #  4     ecut=    45.00 Ry     beta= 0.70
     Davidson diagonalization with overlap
     ethr =  2.03E-06,  avg # of iterations =  3.1

     negative rho (up, down):  4.485E-05 0.000E+00

     total cpu time spent up to now is        5.1 secs

     total energy              =     -36.88795253 Ry
     estimated scf accuracy    <       0.00000144 Ry

     iteration #  5     ecut=    45.00 Ry     beta= 0.70
     Davidson diagonalization with overlap
     ethr =  1.81E-08,  avg # of iterations =  3.1

     negative rho (up, down):  4.499E-05 0.000E+00

     total cpu time spent up to now is        5.7 secs

     total energy              =     -36.88795328 Ry
     estimated scf accuracy    <       0.00000002 Ry

     iteration #  6     ecut=    45.00 Ry     beta= 0.70
     Davidson diagonalization with overlap
     ethr =  2.79E-10,  avg # of iterations =  2.5

     negative rho (up, down):  4.505E-05 0.000E+00

     total cpu time spent up to now is        6.3 secs

     End of self-consistent calculation

          k = 0.0000 0.0000 0.0000 (  2603 PWs)   bands (ev):

   -21.2256  -9.3137  -4.7180  -4.7180   1.5497   2.4487   2.8673   4.8427

          k = 0.0000 0.1650 0.0000 (  2637 PWs)   bands (ev):

   -20.7435  -8.7385  -6.4744  -5.6032   2.2071   3.1106   3.5352   5.4985

          k = 0.0000 0.3299 0.0000 (  2649 PWs)   bands (ev):

   -19.3141 -10.0626  -7.0796  -7.0684   4.1736   4.5477   5.1592   5.5336

          k = 0.0000 0.4949 0.0000 (  2666 PWs)   bands (ev):

   -17.0205 -13.7098  -7.9915  -4.6919   0.8629   5.8186   7.4429   8.3719

          k = 0.1429 0.2474 0.0000 (  2651 PWs)   bands (ev):

   -19.7878  -8.5742  -7.6117  -7.3662   3.5215   4.4274   4.8718   5.7981

          k = 0.1429 0.4124 0.0000 (  2683 PWs)   bands (ev):

   -17.9194 -11.7697  -8.9936  -5.4998   2.3372   6.1315   7.0238   7.5330

          k = 0.1429 0.5774 0.0000 (  2689 PWs)   bands (ev):

   -15.6584 -14.6419  -9.5133  -3.5930  -0.1316   7.7109   9.8604  10.0382

          k = 0.2857 0.4949 0.0000 (  2705 PWs)   bands (ev):

   -15.7322 -13.2006 -11.5737  -3.1760  -0.1656   9.0858   9.2935  10.8394

     the Fermi energy is    -0.8449 ev

!    total energy              =     -36.88795329 Ry
     total all-electron energy =      -152.416149 Ry
     estimated scf accuracy    <          4.6E-10 Ry
     smearing contrib. (-TS)   =      -0.00000000 Ry
     internal energy E=F+TS    =     -36.88795329 Ry

     The total energy is F=E-TS. E is the sum of the following terms:
     one-electron contribution =    -154.20943392 Ry
     hartree contribution      =      78.73860557 Ry
     xc contribution           =      -9.27922672 Ry
     ewald contribution        =      60.19597803 Ry
     one-center paw contrib.   =     -12.33387625 Ry

     convergence has been achieved in   6 iterations

     Writing all to output data dir ./tmp/graphene.save/ :
     XML data file, charge density, pseudopotentials, collected wavefunctions

     init_run     :      1.77s CPU      1.73s WALL (       1 calls)
     electrons    :      6.85s CPU      4.49s WALL (       1 calls)

     Called by init_run:
     wfcinit      :      0.47s CPU      0.37s WALL (       1 calls)
     potinit      :      0.61s CPU      0.63s WALL (       1 calls)
     hinit0       :      0.62s CPU      0.63s WALL (       1 calls)

     Called by electrons:
     c_bands      :      3.85s CPU      2.28s WALL (       6 calls)
     sum_band     :      1.41s CPU      0.75s WALL (       6 calls)
     v_of_rho     :      0.82s CPU      0.68s WALL (       7 calls)
     newd         :      0.31s CPU      0.39s WALL (       7 calls)
     PAW_pot      :      0.51s CPU      0.52s WALL (       7 calls)
     mix_rho      :      0.10s CPU      0.06s WALL (       6 calls)

     Called by c_bands:
     init_us_2    :      0.11s CPU      0.06s WALL (     104 calls)
     cegterg      :      3.68s CPU      2.20s WALL (      48 calls)

     Called by *egterg:
     cdiaghg      :      0.08s CPU      0.04s WALL (     262 calls)
     h_psi        :      3.59s CPU      2.27s WALL (     270 calls)
     s_psi        :      0.06s CPU      0.04s WALL (     270 calls)
     g_psi        :      0.03s CPU      0.01s WALL (     214 calls)

     Called by h_psi:
     h_psi:calbec :      0.08s CPU      0.05s WALL (     270 calls)
     vloc_psi     :      3.36s CPU      2.10s WALL (     270 calls)
     add_vuspsi   :      0.12s CPU      0.11s WALL (     270 calls)

     General routines
     calbec       :      0.10s CPU      0.05s WALL (     318 calls)
     fft          :      0.81s CPU      0.72s WALL (      89 calls)
     ffts         :      0.44s CPU      0.43s WALL (      13 calls)
     fftw         :      2.78s CPU      1.83s WALL (    2868 calls)
     interpolate  :      0.45s CPU      0.45s WALL (       7 calls)


     PWSCF        :      8.82s CPU      6.35s WALL


   This run was terminated on:  16:50: 0   9Sep2025            

=------------------------------------------------------------------------------=
   JOB DONE.
=------------------------------------------------------------------------------=
