
     Program PWSCF v.7.4.1 starts on  9Sep2025 at 16:47:11 

     This program is part of the open-source Quantum ESPRESSO suite
     for quantum simulation of materials; please cite
         "P. Giannozzi et al., J. Phys.:Condens. Matter 21 395502 (2009);
         "P. Giannozzi et al., J. Phys.:Condens. Matter 29 465901 (2017);
         "P. Giannozzi et al., J. Chem. Phys. 152 154105 (2020);
          URL http://www.quantum-espresso.org", 
     in publications or presentations arising from this work. More details at
     http://www.quantum-espresso.org/quote

     Serial version
     22282 MiB available memory on the printing compute node when the environment starts

     Waiting for input...
     Reading input from standard input

     Current dimensions of program PWSCF are:
     Max number of different atomic species (ntypx) = 10
     Max number of k-points (npk) =  40000
     Max angular momentum in pseudopotentials (lmaxx) =  4
     file C.pbe-n-kjpaw_psl.1.0.0.UPF: wavefunction(s)  2S 2P renormalized


     G-vector sticks info
     --------------------
     sticks:   dense  smooth     PW     G-vecs:    dense   smooth      PW
     Sum         673     265     61                84597    21311    2603

     Using Slab Decomposition



     bravais-lattice index     =            4
     lattice parameter (alat)  =       4.6540  a.u.
     unit-cell volume          =     523.7946 (a.u.)^3
     number of atoms/cell      =            2
     number of atomic types    =            1
     number of electrons       =         8.00
     number of Kohn-Sham states=            8
     kinetic-energy cutoff     =      45.0000  Ry
     charge density cutoff     =     450.0000  Ry
     scf convergence threshold =      1.0E-08
     mixing beta               =       0.7000
     number of iterations used =            8  plain     mixing
     Exchange-correlation= SLA  PW   PBX  PBC
                           (   1   4   3   4   0   0   0)

     celldm(1)=   4.654000  celldm(2)=   0.000000  celldm(3)=   6.000000
     celldm(4)=   0.000000  celldm(5)=   0.000000  celldm(6)=   0.000000

     crystal axes: (cart. coord. in units of alat)
               a(1) = (   1.000000   0.000000   0.000000 )  
               a(2) = (  -0.500000   0.866025   0.000000 )  
               a(3) = (   0.000000   0.000000   6.000000 )  

     reciprocal axes: (cart. coord. in units 2 pi/alat)
               b(1) = (  1.000000  0.577350 -0.000000 )  
               b(2) = (  0.000000  1.154701  0.000000 )  
               b(3) = (  0.000000 -0.000000  0.166667 )  


     PseudoPot. # 1 for C  read from file:
     ../../../../../pseudos/C.pbe-n-kjpaw_psl.1.0.0.UPF
     MD5 check sum: 5d2aebdfa2cae82b50a7e79e9516da0f
     Pseudo is Projector augmented-wave + core cor, Zval =  4.0
     Generated using "atomic" code by A. Dal Corso  v.5.1
     Shape of augmentation charge: PSQ
     Using radial grid of 1073 points,  4 beta functions with: 
                l(1) =   0
                l(2) =   0
                l(3) =   1
                l(4) =   1
     Q(r) pseudized with 0 coefficients 


     atomic species   valence    mass     pseudopotential
     C                 4.00    12.01070     C ( 1.00)

     24 Sym. Ops., with inversion, found (12 have fractional translation)



   Cartesian axes

     site n.     atom                  positions (alat units)
         1        C      tau(   1) = (   0.0000000   0.0000000   0.0000000  )
         2        C      tau(   2) = (   0.0000000   0.5773503   0.0000000  )

     number of k points=     1  Gaussian smearing, width (Ry)=  0.0100
                       cart. coord. in units 2pi/alat
        k(    1) = (   0.0000000   0.0000000   0.0000000), wk =   2.0000000

     Dense  grid:    84597 G-vectors     FFT dimensions: (  36,  36, 192)

     Smooth grid:    21311 G-vectors     FFT dimensions: (  24,  24, 120)

     Estimated max dynamical RAM per process >     111.33 MB

     Initial potential from superposition of free atoms

     starting charge       7.9999, renormalised to       8.0000

     negative rho (up, down):  1.033E-05 0.000E+00
     Starting wfcs are    8 randomized atomic wfcs

     total cpu time spent up to now is        1.7 secs

     Self-consistent Calculation

     iteration #  1     ecut=    45.00 Ry     beta= 0.70
     Davidson diagonalization with overlap
     ethr =  1.00E-02,  avg # of iterations =  5.0

     negative rho (up, down):  3.406E-05 0.000E+00

     total cpu time spent up to now is        2.2 secs

     total energy              =     -36.33696157 Ry
     estimated scf accuracy    <       0.37307382 Ry

     iteration #  2     ecut=    45.00 Ry     beta= 0.70
     Davidson diagonalization with overlap
     ethr =  4.66E-03,  avg # of iterations =  2.0

     negative rho (up, down):  4.194E-05 0.000E+00

     total cpu time spent up to now is        2.6 secs

     total energy              =     -36.38397369 Ry
     estimated scf accuracy    <       0.01085315 Ry

     iteration #  3     ecut=    45.00 Ry     beta= 0.70
     Davidson diagonalization with overlap
     ethr =  1.36E-04,  avg # of iterations =  6.0

     negative rho (up, down):  4.957E-05 0.000E+00

     total cpu time spent up to now is        2.9 secs

     total energy              =     -36.38438167 Ry
     estimated scf accuracy    <       0.00067510 Ry

     iteration #  4     ecut=    45.00 Ry     beta= 0.70
     Davidson diagonalization with overlap
     ethr =  8.44E-06,  avg # of iterations =  8.0

     negative rho (up, down):  5.098E-05 0.000E+00

     total cpu time spent up to now is        3.3 secs

     total energy              =     -36.38440032 Ry
     estimated scf accuracy    <       0.00000252 Ry

     iteration #  5     ecut=    45.00 Ry     beta= 0.70
     Davidson diagonalization with overlap
     ethr =  3.14E-08,  avg # of iterations =  4.0

     negative rho (up, down):  5.111E-05 0.000E+00

     total cpu time spent up to now is        3.7 secs

     total energy              =     -36.38440067 Ry
     estimated scf accuracy    <       0.00000003 Ry

     iteration #  6     ecut=    45.00 Ry     beta= 0.70
     Davidson diagonalization with overlap
     ethr =  3.69E-10,  avg # of iterations =  2.0

     negative rho (up, down):  5.119E-05 0.000E+00

     total cpu time spent up to now is        4.0 secs

     End of self-consistent calculation

          k = 0.0000 0.0000 0.0000 (  2603 PWs)   bands (ev):

   -21.0800  -9.3890  -4.3043  -4.3043   1.4164   2.4137   2.8918   4.8528

     the Fermi energy is    -0.9501 ev

!    total energy              =     -36.38440067 Ry
     total all-electron energy =      -151.912596 Ry
     estimated scf accuracy    <          3.3E-10 Ry
     smearing contrib. (-TS)   =      -0.00000000 Ry
     internal energy E=F+TS    =     -36.38440067 Ry

     The total energy is F=E-TS. E is the sum of the following terms:
     one-electron contribution =    -153.76831600 Ry
     hartree contribution      =      78.88303469 Ry
     xc contribution           =      -9.43028669 Ry
     ewald contribution        =      60.19597803 Ry
     one-center paw contrib.   =     -12.26481070 Ry

     convergence has been achieved in   6 iterations

     Writing all to output data dir ./tmp/graphene.save/ :
     XML data file, charge density, pseudopotentials, collected wavefunctions

     init_run     :      1.49s CPU      1.55s WALL (       1 calls)
     electrons    :      2.90s CPU      2.35s WALL (       1 calls)

     Called by init_run:
     wfcinit      :      0.28s CPU      0.27s WALL (       1 calls)
     potinit      :      0.57s CPU      0.59s WALL (       1 calls)
     hinit0       :      0.58s CPU      0.59s WALL (       1 calls)

     Called by electrons:
     c_bands      :      0.44s CPU      0.33s WALL (       6 calls)
     sum_band     :      0.98s CPU      0.60s WALL (       6 calls)
     v_of_rho     :      0.75s CPU      0.67s WALL (       7 calls)
     newd         :      0.28s CPU      0.37s WALL (       7 calls)
     PAW_pot      :      0.47s CPU      0.48s WALL (       7 calls)
     mix_rho      :      0.12s CPU      0.08s WALL (       6 calls)

     Called by c_bands:
     init_us_2    :      0.01s CPU      0.01s WALL (      13 calls)
     cegterg      :      0.43s CPU      0.32s WALL (       6 calls)

     Called by *egterg:
     cdiaghg      :      0.02s CPU      0.02s WALL (      33 calls)
     h_psi        :      0.62s CPU      0.54s WALL (      34 calls)
     s_psi        :      0.01s CPU      0.00s WALL (      34 calls)
     g_psi        :      0.00s CPU      0.00s WALL (      27 calls)

     Called by h_psi:
     h_psi:calbec :      0.01s CPU      0.02s WALL (      34 calls)
     vloc_psi     :      0.57s CPU      0.47s WALL (      34 calls)
     add_vuspsi   :      0.03s CPU      0.04s WALL (      34 calls)

     General routines
     calbec       :      0.01s CPU      0.02s WALL (      40 calls)
     fft          :      0.75s CPU      0.69s WALL (      89 calls)
     ffts         :      0.41s CPU      0.41s WALL (      13 calls)
     fftw         :      0.52s CPU      0.44s WALL (     336 calls)
     interpolate  :      0.42s CPU      0.42s WALL (       7 calls)


     PWSCF        :      4.56s CPU      4.03s WALL


   This run was terminated on:  16:47:15   9Sep2025            

=------------------------------------------------------------------------------=
   JOB DONE.
=------------------------------------------------------------------------------=
