
     Program PWSCF v.7.4.1 starts on  9Sep2025 at  8:35:53 

     This program is part of the open-source Quantum ESPRESSO suite
     for quantum simulation of materials; please cite
         "P. Giannozzi et al., J. Phys.:Condens. Matter 21 395502 (2009);
         "P. Giannozzi et al., J. Phys.:Condens. Matter 29 465901 (2017);
         "P. Giannozzi et al., J. Chem. Phys. 152 154105 (2020);
          URL http://www.quantum-espresso.org", 
     in publications or presentations arising from this work. More details at
     http://www.quantum-espresso.org/quote

     Serial version
     7800 MiB available memory on the printing compute node when the environment starts

     Waiting for input...
     Reading input from standard input

     Current dimensions of program PWSCF are:
     Max number of different atomic species (ntypx) = 10
     Max number of k-points (npk) =  40000
     Max angular momentum in pseudopotentials (lmaxx) =  4
     file C.pbe-n-kjpaw_psl.1.0.0.UPF: wavefunction(s)  2S 2P renormalized


     G-vector sticks info
     --------------------
     sticks:   dense  smooth     PW     G-vecs:    dense   smooth      PW
     Sum        1147     451    139               186659    47069    7891

     Using Slab Decomposition



     bravais-lattice index     =            4
     lattice parameter (alat)  =       4.6940  a.u.
     unit-cell volume          =     537.4167 (a.u.)^3
     number of atoms/cell      =            2
     number of atomic types    =            1
     number of electrons       =         8.00
     number of Kohn-Sham states=            8
     kinetic-energy cutoff     =      75.0000  Ry
     charge density cutoff     =     750.0000  Ry
     scf convergence threshold =      1.0E-08
     mixing beta               =       0.7000
     number of iterations used =            8  plain     mixing
     Exchange-correlation= SLA  PW   PBX  PBC
                           (   1   4   3   4   0   0   0)

     celldm(1)=   4.694000  celldm(2)=   0.000000  celldm(3)=   6.000000
     celldm(4)=   0.000000  celldm(5)=   0.000000  celldm(6)=   0.000000

     crystal axes: (cart. coord. in units of alat)
               a(1) = (   1.000000   0.000000   0.000000 )  
               a(2) = (  -0.500000   0.866025   0.000000 )  
               a(3) = (   0.000000   0.000000   6.000000 )  

     reciprocal axes: (cart. coord. in units 2 pi/alat)
               b(1) = (  1.000000  0.577350 -0.000000 )  
               b(2) = (  0.000000  1.154701  0.000000 )  
               b(3) = (  0.000000 -0.000000  0.166667 )  


     PseudoPot. # 1 for C  read from file:
     ../../../../../pseudos/C.pbe-n-kjpaw_psl.1.0.0.UPF
     MD5 check sum: 5d2aebdfa2cae82b50a7e79e9516da0f
     Pseudo is Projector augmented-wave + core cor, Zval =  4.0
     Generated using "atomic" code by A. Dal Corso  v.5.1
     Shape of augmentation charge: PSQ
     Using radial grid of 1073 points,  4 beta functions with: 
                l(1) =   0
                l(2) =   0
                l(3) =   1
                l(4) =   1
     Q(r) pseudized with 0 coefficients 


     atomic species   valence    mass     pseudopotential
     C                 4.00    12.01070     C ( 1.00)

     24 Sym. Ops., with inversion, found (12 have fractional translation)



   Cartesian axes

     site n.     atom                  positions (alat units)
         1        C      tau(   1) = (   0.0000000   0.0000000   0.0000000  )
         2        C      tau(   2) = (   0.0000000   0.5773503   0.0000000  )

     number of k points=    12  Gaussian smearing, width (Ry)=  0.0100
                       cart. coord. in units 2pi/alat
        k(    1) = (   0.0000000   0.0000000   0.0000000), wk =   0.0246914
        k(    2) = (   0.0000000   0.1283001   0.0000000), wk =   0.1481481
        k(    3) = (   0.0000000   0.2566001   0.0000000), wk =   0.1481481
        k(    4) = (   0.0000000   0.3849002   0.0000000), wk =   0.1481481
        k(    5) = (   0.0000000   0.5132002   0.0000000), wk =   0.1481481
        k(    6) = (   0.1111111   0.1924501   0.0000000), wk =   0.1481481
        k(    7) = (   0.1111111   0.3207501   0.0000000), wk =   0.2962963
        k(    8) = (   0.1111111   0.4490502   0.0000000), wk =   0.2962963
        k(    9) = (   0.1111111   0.5773503   0.0000000), wk =   0.1481481
        k(   10) = (   0.2222222   0.3849002   0.0000000), wk =   0.1481481
        k(   11) = (   0.2222222   0.5132002   0.0000000), wk =   0.2962963
        k(   12) = (   0.3333333   0.5773503   0.0000000), wk =   0.0493827

     Dense  grid:   186659 G-vectors     FFT dimensions: (  45,  45, 250)

     Smooth grid:    47069 G-vectors     FFT dimensions: (  27,  27, 160)

     Estimated max dynamical RAM per process >     250.90 MB

     Initial potential from superposition of free atoms

     starting charge       7.9999, renormalised to       8.0000

     negative rho (up, down):  3.383E-06 0.000E+00
     Starting wfcs are    8 randomized atomic wfcs

     total cpu time spent up to now is        4.9 secs

     Self-consistent Calculation

     iteration #  1     ecut=    75.00 Ry     beta= 0.70
     Davidson diagonalization with overlap
     ethr =  1.00E-02,  avg # of iterations =  6.2

     negative rho (up, down):  3.761E-06 0.000E+00

     total cpu time spent up to now is       11.4 secs

     total energy              =     -36.86197374 Ry
     estimated scf accuracy    <       0.18005254 Ry

     iteration #  2     ecut=    75.00 Ry     beta= 0.70
     Davidson diagonalization with overlap
     ethr =  2.25E-03,  avg # of iterations =  3.4

     negative rho (up, down):  8.534E-06 0.000E+00

     total cpu time spent up to now is       14.9 secs

     total energy              =     -36.88626975 Ry
     estimated scf accuracy    <       0.00194159 Ry

     iteration #  3     ecut=    75.00 Ry     beta= 0.70
     Davidson diagonalization with overlap
     ethr =  2.43E-05,  avg # of iterations =  9.3

     negative rho (up, down):  1.311E-05 0.000E+00

     total cpu time spent up to now is       19.6 secs

     total energy              =     -36.88657182 Ry
     estimated scf accuracy    <       0.00015249 Ry

     iteration #  4     ecut=    75.00 Ry     beta= 0.70
     Davidson diagonalization with overlap
     ethr =  1.91E-06,  avg # of iterations =  5.6

     negative rho (up, down):  1.358E-05 0.000E+00

     total cpu time spent up to now is       24.3 secs

     total energy              =     -36.88658461 Ry
     estimated scf accuracy    <       0.00000220 Ry

     iteration #  5     ecut=    75.00 Ry     beta= 0.70
     Davidson diagonalization with overlap
     ethr =  2.75E-08,  avg # of iterations =  2.9

     negative rho (up, down):  1.365E-05 0.000E+00

     total cpu time spent up to now is       28.5 secs

     total energy              =     -36.88658569 Ry
     estimated scf accuracy    <       0.00000007 Ry

     iteration #  6     ecut=    75.00 Ry     beta= 0.70
     Davidson diagonalization with overlap
     ethr =  8.30E-10,  avg # of iterations =  2.8

     negative rho (up, down):  1.368E-05 0.000E+00

     total cpu time spent up to now is       31.7 secs

     End of self-consistent calculation

          k = 0.0000 0.0000 0.0000 (  5957 PWs)   bands (ev):

   -21.1412  -9.2641  -4.8488  -4.8488   1.4979   2.3787   2.7681   4.7133

          k = 0.0000 0.1283 0.0000 (  5939 PWs)   bands (ev):

   -20.8538  -8.9224  -5.9549  -5.4079   1.8891   2.7725   3.1653   5.1037

          k = 0.0000 0.2566 0.0000 (  5925 PWs)   bands (ev):

   -19.9974  -8.4771  -7.9152  -6.5380   3.0614   3.9459   4.3564   6.0005

          k = 0.0000 0.3849 0.0000 (  5883 PWs)   bands (ev):

   -18.5933 -11.3703  -7.5378  -6.3227   3.0371   4.9979   5.7319   5.9289

          k = 0.0000 0.5132 0.0000 (  5870 PWs)   bands (ev):

   -16.7240 -14.0694  -8.0905  -4.5202   0.4078   5.4239   7.7192   8.6265

          k = 0.1111 0.1925 0.0000 (  5929 PWs)   bands (ev):

   -20.2819  -8.2473  -7.5000  -6.5269   2.6716   3.5580   3.9600   5.8808

          k = 0.1111 0.3208 0.0000 (  5924 PWs)   bands (ev):

   -19.1513  -9.9213  -7.8856  -6.9377   4.2321   4.2534   5.1331   5.5482

          k = 0.1111 0.4491 0.0000 (  5864 PWs)   bands (ev):

   -17.5016 -12.6405  -8.7528  -5.1483   1.4799   6.5221   6.8026   7.4366

          k = 0.1111 0.5774 0.0000 (  5864 PWs)   bands (ev):

   -15.8142 -14.7234  -9.0482  -3.8443  -0.1992   6.6088   9.5040   9.6702

          k = 0.2222 0.3849 0.0000 (  5897 PWs)   bands (ev):

   -17.7718 -11.4347  -9.8543  -5.3880   2.0836   6.1700   7.0031   7.5316

          k = 0.2222 0.5132 0.0000 (  5863 PWs)   bands (ev):

   -15.9563 -13.5081 -10.8439  -3.5528  -0.1042   8.8038   9.0372   9.4586

          k = 0.3333 0.5774 0.0000 (  5886 PWs)   bands (ev):

   -14.3325 -14.3325 -12.2010  -1.7862  -1.7862   8.7982  10.9369  10.9369

     the Fermi energy is    -1.7862 ev

!    total energy              =     -36.88658571 Ry
     total all-electron energy =      -152.414781 Ry
     estimated scf accuracy    <          3.6E-10 Ry
     smearing contrib. (-TS)   =      -0.00027861 Ry
     internal energy E=F+TS    =     -36.88630710 Ry

     The total energy is F=E-TS. E is the sum of the following terms:
     one-electron contribution =    -153.19607887 Ry
     hartree contribution      =      78.20110194 Ry
     xc contribution           =      -9.24168808 Ry
     ewald contribution        =      59.68301699 Ry
     one-center paw contrib.   =     -12.33265908 Ry

     convergence has been achieved in   6 iterations

     Writing all to output data dir ./tmp/graphene.save/ :
     XML data file, charge density, pseudopotentials, collected wavefunctions

     init_run     :      3.26s CPU      4.65s WALL (       1 calls)
     electrons    :     25.10s CPU     26.93s WALL (       1 calls)

     Called by init_run:
     wfcinit      :      1.10s CPU      1.98s WALL (       1 calls)
     potinit      :      0.94s CPU      1.07s WALL (       1 calls)
     hinit0       :      0.91s CPU      1.17s WALL (       1 calls)

     Called by electrons:
     c_bands      :     18.43s CPU     19.19s WALL (       6 calls)
     sum_band     :      2.98s CPU      3.13s WALL (       6 calls)
     v_of_rho     :      2.08s CPU      2.63s WALL (       7 calls)
     newd         :      1.02s CPU      1.52s WALL (       7 calls)
     PAW_pot      :      0.79s CPU      0.81s WALL (       7 calls)
     mix_rho      :      0.20s CPU      0.20s WALL (       6 calls)

     Called by c_bands:
     init_us_2    :      0.30s CPU      0.25s WALL (     156 calls)
     cegterg      :     17.98s CPU     18.82s WALL (      72 calls)

     Called by *egterg:
     cdiaghg      :      0.11s CPU      0.07s WALL (     435 calls)
     h_psi        :     17.14s CPU     18.64s WALL (     447 calls)
     s_psi        :      0.32s CPU      0.45s WALL (     447 calls)
     g_psi        :      0.07s CPU      0.04s WALL (     363 calls)

     Called by h_psi:
     h_psi:calbec :      0.42s CPU      0.80s WALL (     447 calls)
     vloc_psi     :     15.36s CPU     14.91s WALL (     447 calls)
     add_vuspsi   :      1.30s CPU      2.89s WALL (     447 calls)

     General routines
     calbec       :      0.45s CPU      0.82s WALL (     519 calls)
     fft          :      1.68s CPU      2.01s WALL (      89 calls)
     ffts         :      0.48s CPU      0.50s WALL (      13 calls)
     fftw         :     11.60s CPU     11.34s WALL (    4444 calls)
     interpolate  :      0.57s CPU      0.60s WALL (       7 calls)


     PWSCF        :     28.51s CPU     31.84s WALL


   This run was terminated on:   8:36:25   9Sep2025            

=------------------------------------------------------------------------------=
   JOB DONE.
=------------------------------------------------------------------------------=
