
     Program PWSCF v.7.4.1 starts on  9Sep2025 at  8:35:45 

     This program is part of the open-source Quantum ESPRESSO suite
     for quantum simulation of materials; please cite
         "P. Giannozzi et al., J. Phys.:Condens. Matter 21 395502 (2009);
         "P. Giannozzi et al., J. Phys.:Condens. Matter 29 465901 (2017);
         "P. Giannozzi et al., J. Chem. Phys. 152 154105 (2020);
          URL http://www.quantum-espresso.org", 
     in publications or presentations arising from this work. More details at
     http://www.quantum-espresso.org/quote

     Serial version
     7754 MiB available memory on the printing compute node when the environment starts

     Waiting for input...
     Reading input from standard input

     Current dimensions of program PWSCF are:
     Max number of different atomic species (ntypx) = 10
     Max number of k-points (npk) =  40000
     Max angular momentum in pseudopotentials (lmaxx) =  4
     file C.pbe-n-kjpaw_psl.1.0.0.UPF: wavefunction(s)  2S 2P renormalized


     G-vector sticks info
     --------------------
     sticks:   dense  smooth     PW     G-vecs:    dense   smooth      PW
     Sum        1069     433    121               168033    42643    7091

     Using Slab Decomposition



     bravais-lattice index     =            4
     lattice parameter (alat)  =       4.6940  a.u.
     unit-cell volume          =     537.4167 (a.u.)^3
     number of atoms/cell      =            2
     number of atomic types    =            1
     number of electrons       =         8.00
     number of Kohn-Sham states=            8
     kinetic-energy cutoff     =      70.0000  Ry
     charge density cutoff     =     700.0000  Ry
     scf convergence threshold =      1.0E-08
     mixing beta               =       0.7000
     number of iterations used =            8  plain     mixing
     Exchange-correlation= SLA  PW   PBX  PBC
                           (   1   4   3   4   0   0   0)

     celldm(1)=   4.694000  celldm(2)=   0.000000  celldm(3)=   6.000000
     celldm(4)=   0.000000  celldm(5)=   0.000000  celldm(6)=   0.000000

     crystal axes: (cart. coord. in units of alat)
               a(1) = (   1.000000   0.000000   0.000000 )  
               a(2) = (  -0.500000   0.866025   0.000000 )  
               a(3) = (   0.000000   0.000000   6.000000 )  

     reciprocal axes: (cart. coord. in units 2 pi/alat)
               b(1) = (  1.000000  0.577350 -0.000000 )  
               b(2) = (  0.000000  1.154701  0.000000 )  
               b(3) = (  0.000000 -0.000000  0.166667 )  


     PseudoPot. # 1 for C  read from file:
     ../../../../../pseudos/C.pbe-n-kjpaw_psl.1.0.0.UPF
     MD5 check sum: 5d2aebdfa2cae82b50a7e79e9516da0f
     Pseudo is Projector augmented-wave + core cor, Zval =  4.0
     Generated using "atomic" code by A. Dal Corso  v.5.1
     Shape of augmentation charge: PSQ
     Using radial grid of 1073 points,  4 beta functions with: 
                l(1) =   0
                l(2) =   0
                l(3) =   1
                l(4) =   1
     Q(r) pseudized with 0 coefficients 


     atomic species   valence    mass     pseudopotential
     C                 4.00    12.01070     C ( 1.00)

     24 Sym. Ops., with inversion, found (12 have fractional translation)



   Cartesian axes

     site n.     atom                  positions (alat units)
         1        C      tau(   1) = (   0.0000000   0.0000000   0.0000000  )
         2        C      tau(   2) = (   0.0000000   0.5773503   0.0000000  )

     number of k points=    12  Gaussian smearing, width (Ry)=  0.0100
                       cart. coord. in units 2pi/alat
        k(    1) = (   0.0000000   0.0000000   0.0000000), wk =   0.0246914
        k(    2) = (   0.0000000   0.1283001   0.0000000), wk =   0.1481481
        k(    3) = (   0.0000000   0.2566001   0.0000000), wk =   0.1481481
        k(    4) = (   0.0000000   0.3849002   0.0000000), wk =   0.1481481
        k(    5) = (   0.0000000   0.5132002   0.0000000), wk =   0.1481481
        k(    6) = (   0.1111111   0.1924501   0.0000000), wk =   0.1481481
        k(    7) = (   0.1111111   0.3207501   0.0000000), wk =   0.2962963
        k(    8) = (   0.1111111   0.4490502   0.0000000), wk =   0.2962963
        k(    9) = (   0.1111111   0.5773503   0.0000000), wk =   0.1481481
        k(   10) = (   0.2222222   0.3849002   0.0000000), wk =   0.1481481
        k(   11) = (   0.2222222   0.5132002   0.0000000), wk =   0.2962963
        k(   12) = (   0.3333333   0.5773503   0.0000000), wk =   0.0493827

     Dense  grid:   168033 G-vectors     FFT dimensions: (  45,  45, 240)

     Smooth grid:    42643 G-vectors     FFT dimensions: (  27,  27, 160)

     Estimated max dynamical RAM per process >     228.00 MB

     Initial potential from superposition of free atoms

     starting charge       7.9999, renormalised to       8.0000

     negative rho (up, down):  2.230E-05 0.000E+00
     Starting wfcs are    8 randomized atomic wfcs

     total cpu time spent up to now is        4.2 secs

     Self-consistent Calculation

     iteration #  1     ecut=    70.00 Ry     beta= 0.70
     Davidson diagonalization with overlap
     ethr =  1.00E-02,  avg # of iterations =  6.5

     negative rho (up, down):  2.265E-05 0.000E+00

     total cpu time spent up to now is       10.3 secs

     total energy              =     -36.86141673 Ry
     estimated scf accuracy    <       0.18088252 Ry

     iteration #  2     ecut=    70.00 Ry     beta= 0.70
     Davidson diagonalization with overlap
     ethr =  2.26E-03,  avg # of iterations =  2.8

     negative rho (up, down):  2.909E-05 0.000E+00

     total cpu time spent up to now is       14.6 secs

     total energy              =     -36.88619725 Ry
     estimated scf accuracy    <       0.00197473 Ry

     iteration #  3     ecut=    70.00 Ry     beta= 0.70
     Davidson diagonalization with overlap
     ethr =  2.47E-05,  avg # of iterations =  9.7

     negative rho (up, down):  3.487E-05 0.000E+00

     total cpu time spent up to now is       20.2 secs

     total energy              =     -36.88647938 Ry
     estimated scf accuracy    <       0.00015471 Ry

     iteration #  4     ecut=    70.00 Ry     beta= 0.70
     Davidson diagonalization with overlap
     ethr =  1.93E-06,  avg # of iterations =  4.1

     negative rho (up, down):  3.544E-05 0.000E+00

     total cpu time spent up to now is       23.6 secs

     total energy              =     -36.88649180 Ry
     estimated scf accuracy    <       0.00000201 Ry

     iteration #  5     ecut=    70.00 Ry     beta= 0.70
     Davidson diagonalization with overlap
     ethr =  2.52E-08,  avg # of iterations =  3.1

     negative rho (up, down):  3.548E-05 0.000E+00

     total cpu time spent up to now is       27.5 secs

     total energy              =     -36.88649286 Ry
     estimated scf accuracy    <       0.00000006 Ry

     iteration #  6     ecut=    70.00 Ry     beta= 0.70
     Davidson diagonalization with overlap
     ethr =  7.99E-10,  avg # of iterations =  2.6

     negative rho (up, down):  3.549E-05 0.000E+00

     total cpu time spent up to now is       30.3 secs

     End of self-consistent calculation

          k = 0.0000 0.0000 0.0000 (  5307 PWs)   bands (ev):

   -21.1414  -9.2640  -4.8487  -4.8487   1.5154   2.4103   2.8474   4.7751

          k = 0.0000 0.1283 0.0000 (  5327 PWs)   bands (ev):

   -20.8539  -8.9223  -5.9548  -5.4078   1.9063   2.8038   3.2448   5.1655

          k = 0.0000 0.2566 0.0000 (  5315 PWs)   bands (ev):

   -19.9975  -8.4770  -7.9152  -6.5379   3.0777   3.9761   4.4365   6.0098

          k = 0.0000 0.3849 0.0000 (  5333 PWs)   bands (ev):

   -18.5934 -11.3703  -7.5377  -6.3226   3.0371   5.0120   5.7339   5.9580

          k = 0.0000 0.5132 0.0000 (  5334 PWs)   bands (ev):

   -16.7241 -14.0694  -8.0904  -4.5201   0.4078   5.4238   7.7316   8.6519

          k = 0.1111 0.1925 0.0000 (  5303 PWs)   bands (ev):

   -20.2820  -8.2472  -7.4998  -6.5268   2.6882   3.5887   4.0399   6.8135

          k = 0.1111 0.3208 0.0000 (  5317 PWs)   bands (ev):

   -19.1514  -9.9213  -7.8854  -6.9376   4.2475   4.2536   5.1622   5.6287

          k = 0.1111 0.4491 0.0000 (  5329 PWs)   bands (ev):

   -17.5017 -12.6406  -8.7527  -5.1482   1.4799   6.5328   6.8057   7.4624

          k = 0.1111 0.5774 0.0000 (  5342 PWs)   bands (ev):

   -15.8143 -14.7233  -9.0480  -3.8443  -0.1992   6.6087   9.5128   9.6815

          k = 0.2222 0.3849 0.0000 (  5322 PWs)   bands (ev):

   -17.7719 -11.4348  -9.8542  -5.3880   2.0836   6.1837   7.0279   7.6132

          k = 0.2222 0.5132 0.0000 (  5296 PWs)   bands (ev):

   -15.9563 -13.5081 -10.8438  -3.5528  -0.1041   8.8138   9.0435   9.4596

          k = 0.3333 0.5774 0.0000 (  5262 PWs)   bands (ev):

   -14.3325 -14.3325 -12.2008  -1.7862  -1.7862   8.7986  10.9387  10.9387

     the Fermi energy is    -1.7862 ev

!    total energy              =     -36.88649288 Ry
     total all-electron energy =      -152.414689 Ry
     estimated scf accuracy    <          4.8E-10 Ry
     smearing contrib. (-TS)   =      -0.00027861 Ry
     internal energy E=F+TS    =     -36.88621427 Ry

     The total energy is F=E-TS. E is the sum of the following terms:
     one-electron contribution =    -153.19596411 Ry
     hartree contribution      =      78.20108130 Ry
     xc contribution           =      -9.24170946 Ry
     ewald contribution        =      59.68301699 Ry
     one-center paw contrib.   =     -12.33263900 Ry

     convergence has been achieved in   6 iterations

     Writing all to output data dir ./tmp/graphene.save/ :
     XML data file, charge density, pseudopotentials, collected wavefunctions

     init_run     :      3.39s CPU      3.97s WALL (       1 calls)
     electrons    :     23.50s CPU     26.16s WALL (       1 calls)

     Called by init_run:
     wfcinit      :      1.31s CPU      1.37s WALL (       1 calls)
     potinit      :      0.83s CPU      0.89s WALL (       1 calls)
     hinit0       :      0.99s CPU      1.19s WALL (       1 calls)

     Called by electrons:
     c_bands      :     17.02s CPU     18.19s WALL (       6 calls)
     sum_band     :      2.84s CPU      3.09s WALL (       6 calls)
     v_of_rho     :      1.89s CPU      2.34s WALL (       7 calls)
     newd         :      0.97s CPU      1.56s WALL (       7 calls)
     PAW_pot      :      0.92s CPU      1.16s WALL (       7 calls)
     mix_rho      :      0.17s CPU      0.22s WALL (       6 calls)

     Called by c_bands:
     init_us_2    :      0.27s CPU      0.24s WALL (     156 calls)
     cegterg      :     16.63s CPU     17.86s WALL (      72 calls)

     Called by *egterg:
     cdiaghg      :      0.10s CPU      0.07s WALL (     417 calls)
     h_psi        :     16.25s CPU     17.58s WALL (     429 calls)
     s_psi        :      0.28s CPU      0.36s WALL (     429 calls)
     g_psi        :      0.06s CPU      0.04s WALL (     345 calls)

     Called by h_psi:
     h_psi:calbec :      0.37s CPU      0.75s WALL (     429 calls)
     vloc_psi     :     14.68s CPU     14.03s WALL (     429 calls)
     add_vuspsi   :      1.14s CPU      2.77s WALL (     429 calls)

     General routines
     calbec       :      0.40s CPU      0.78s WALL (     501 calls)
     fft          :      1.72s CPU      2.03s WALL (      89 calls)
     ffts         :      0.44s CPU      0.44s WALL (      13 calls)
     fftw         :     11.01s CPU     10.67s WALL (    4392 calls)
     interpolate  :      0.55s CPU      0.55s WALL (       7 calls)


     PWSCF        :     27.06s CPU     30.40s WALL


   This run was terminated on:   8:36:15   9Sep2025            

=------------------------------------------------------------------------------=
   JOB DONE.
=------------------------------------------------------------------------------=
