
     Program PWSCF v.7.4.1 starts on  9Sep2025 at  8: 6:50 

     This program is part of the open-source Quantum ESPRESSO suite
     for quantum simulation of materials; please cite
         "P. Giannozzi et al., J. Phys.:Condens. Matter 21 395502 (2009);
         "P. Giannozzi et al., J. Phys.:Condens. Matter 29 465901 (2017);
         "P. Giannozzi et al., J. Chem. Phys. 152 154105 (2020);
          URL http://www.quantum-espresso.org", 
     in publications or presentations arising from this work. More details at
     http://www.quantum-espresso.org/quote

     Serial version
     8535 MiB available memory on the printing compute node when the environment starts

     Waiting for input...
     Reading input from standard input

     Current dimensions of program PWSCF are:
     Max number of different atomic species (ntypx) = 10
     Max number of k-points (npk) =  40000
     Max angular momentum in pseudopotentials (lmaxx) =  4
     file C.pbe-n-kjpaw_psl.1.0.0.UPF: wavefunction(s)  2S 2P renormalized


     G-vector sticks info
     --------------------
     sticks:   dense  smooth     PW     G-vecs:    dense   smooth      PW
     Sum        1123     439    139               181653    45879    7699

     Using Slab Decomposition



     bravais-lattice index     =            4
     lattice parameter (alat)  =       4.6540  a.u.
     unit-cell volume          =     523.7946 (a.u.)^3
     number of atoms/cell      =            2
     number of atomic types    =            1
     number of electrons       =         8.00
     number of Kohn-Sham states=            8
     kinetic-energy cutoff     =      75.0000  Ry
     charge density cutoff     =     750.0000  Ry
     scf convergence threshold =      1.0E-08
     mixing beta               =       0.7000
     number of iterations used =            8  plain     mixing
     Exchange-correlation= SLA  PW   PBX  PBC
                           (   1   4   3   4   0   0   0)

     celldm(1)=   4.654000  celldm(2)=   0.000000  celldm(3)=   6.000000
     celldm(4)=   0.000000  celldm(5)=   0.000000  celldm(6)=   0.000000

     crystal axes: (cart. coord. in units of alat)
               a(1) = (   1.000000   0.000000   0.000000 )  
               a(2) = (  -0.500000   0.866025   0.000000 )  
               a(3) = (   0.000000   0.000000   6.000000 )  

     reciprocal axes: (cart. coord. in units 2 pi/alat)
               b(1) = (  1.000000  0.577350 -0.000000 )  
               b(2) = (  0.000000  1.154701  0.000000 )  
               b(3) = (  0.000000 -0.000000  0.166667 )  


     PseudoPot. # 1 for C  read from file:
     ../../../../pseudos/C.pbe-n-kjpaw_psl.1.0.0.UPF
     MD5 check sum: 5d2aebdfa2cae82b50a7e79e9516da0f
     Pseudo is Projector augmented-wave + core cor, Zval =  4.0
     Generated using "atomic" code by A. Dal Corso  v.5.1
     Shape of augmentation charge: PSQ
     Using radial grid of 1073 points,  4 beta functions with: 
                l(1) =   0
                l(2) =   0
                l(3) =   1
                l(4) =   1
     Q(r) pseudized with 0 coefficients 


     atomic species   valence    mass     pseudopotential
     C                 4.00    12.01070     C ( 1.00)

     24 Sym. Ops., with inversion, found (12 have fractional translation)



   Cartesian axes

     site n.     atom                  positions (alat units)
         1        C      tau(   1) = (   0.0000000   0.0000000   0.0000000  )
         2        C      tau(   2) = (   0.0000000   0.5773503   0.0000000  )

     number of k points=    12  Gaussian smearing, width (Ry)=  0.0100
                       cart. coord. in units 2pi/alat
        k(    1) = (   0.0000000   0.0000000   0.0000000), wk =   0.0246914
        k(    2) = (   0.0000000   0.1283001   0.0000000), wk =   0.1481481
        k(    3) = (   0.0000000   0.2566001   0.0000000), wk =   0.1481481
        k(    4) = (   0.0000000   0.3849002   0.0000000), wk =   0.1481481
        k(    5) = (   0.0000000   0.5132002   0.0000000), wk =   0.1481481
        k(    6) = (   0.1111111   0.1924501   0.0000000), wk =   0.1481481
        k(    7) = (   0.1111111   0.3207501   0.0000000), wk =   0.2962963
        k(    8) = (   0.1111111   0.4490502   0.0000000), wk =   0.2962963
        k(    9) = (   0.1111111   0.5773503   0.0000000), wk =   0.1481481
        k(   10) = (   0.2222222   0.3849002   0.0000000), wk =   0.1481481
        k(   11) = (   0.2222222   0.5132002   0.0000000), wk =   0.2962963
        k(   12) = (   0.3333333   0.5773503   0.0000000), wk =   0.0493827

     Dense  grid:   181653 G-vectors     FFT dimensions: (  45,  45, 243)

     Smooth grid:    45879 G-vectors     FFT dimensions: (  27,  27, 160)

     Estimated max dynamical RAM per process >     244.16 MB

     Initial potential from superposition of free atoms

     starting charge       7.9999, renormalised to       8.0000

     negative rho (up, down):  3.349E-06 0.000E+00
     Starting wfcs are    8 randomized atomic wfcs

     total cpu time spent up to now is        2.7 secs

     Self-consistent Calculation

     iteration #  1     ecut=    75.00 Ry     beta= 0.70
     Davidson diagonalization with overlap
     ethr =  1.00E-02,  avg # of iterations =  5.3

     negative rho (up, down):  4.238E-06 0.000E+00

     total cpu time spent up to now is        5.6 secs

     total energy              =     -36.86018505 Ry
     estimated scf accuracy    <       0.19355304 Ry

     iteration #  2     ecut=    75.00 Ry     beta= 0.70
     Davidson diagonalization with overlap
     ethr =  2.42E-03,  avg # of iterations =  3.2

     negative rho (up, down):  8.987E-06 0.000E+00

     total cpu time spent up to now is        7.7 secs

     total energy              =     -36.88664430 Ry
     estimated scf accuracy    <       0.00196374 Ry

     iteration #  3     ecut=    75.00 Ry     beta= 0.70
     Davidson diagonalization with overlap
     ethr =  2.45E-05,  avg # of iterations =  9.6

     negative rho (up, down):  1.308E-05 0.000E+00

     total cpu time spent up to now is       11.3 secs

     total energy              =     -36.88696315 Ry
     estimated scf accuracy    <       0.00015152 Ry

     iteration #  4     ecut=    75.00 Ry     beta= 0.70
     Davidson diagonalization with overlap
     ethr =  1.89E-06,  avg # of iterations =  4.6

     negative rho (up, down):  1.360E-05 0.000E+00

     total cpu time spent up to now is       13.6 secs

     total energy              =     -36.88697702 Ry
     estimated scf accuracy    <       0.00000216 Ry

     iteration #  5     ecut=    75.00 Ry     beta= 0.70
     Davidson diagonalization with overlap
     ethr =  2.70E-08,  avg # of iterations =  2.9

     negative rho (up, down):  1.366E-05 0.000E+00

     total cpu time spent up to now is       15.9 secs

     total energy              =     -36.88697809 Ry
     estimated scf accuracy    <       0.00000006 Ry

     iteration #  6     ecut=    75.00 Ry     beta= 0.70
     Davidson diagonalization with overlap
     ethr =  7.72E-10,  avg # of iterations =  2.4

     negative rho (up, down):  1.369E-05 0.000E+00

     total cpu time spent up to now is       18.2 secs

     End of self-consistent calculation

          k = 0.0000 0.0000 0.0000 (  5693 PWs)   bands (ev):

   -21.2248  -9.3141  -4.7174  -4.7174   1.5415   2.4338   2.8314   4.8147

          k = 0.0000 0.1283 0.0000 (  5777 PWs)   bands (ev):

   -20.9330  -8.9652  -5.8345  -5.2918   1.9393   2.8346   3.2353   5.2119

          k = 0.0000 0.2566 0.0000 (  5793 PWs)   bands (ev):

   -20.0632  -8.3880  -7.9363  -6.4502   3.1317   4.0292   4.4467   6.2605

          k = 0.0000 0.3849 0.0000 (  5773 PWs)   bands (ev):

   -18.6364 -11.3230  -7.4733  -6.3080   3.2613   5.1042   6.0492   6.0859

          k = 0.0000 0.5132 0.0000 (  5741 PWs)   bands (ev):

   -16.7288 -14.0718  -8.0384  -4.4604   0.5582   5.7959   7.8721   8.7961

          k = 0.1111 0.1925 0.0000 (  5795 PWs)   bands (ev):

   -20.3522  -8.2756  -7.3930  -6.4397   2.7352   3.6340   4.0436   6.0027

          k = 0.1111 0.3208 0.0000 (  5756 PWs)   bands (ev):

   -19.2038  -9.8467  -7.8266  -6.9372   4.3227   4.5157   5.2413   5.6589

          k = 0.1111 0.4491 0.0000 (  5739 PWs)   bands (ev):

   -17.5256 -12.6109  -8.7088  -5.1059   1.6670   6.6694   7.1689   7.5840

          k = 0.1111 0.5774 0.0000 (  5720 PWs)   bands (ev):

   -15.7802 -14.7578  -9.0093  -3.7667  -0.0609   6.9968   9.6927   9.8562

          k = 0.2222 0.3849 0.0000 (  5736 PWs)   bands (ev):

   -17.8013 -11.3641  -9.8445  -5.3521   2.2963   6.2946   7.1419   7.6766

          k = 0.2222 0.5132 0.0000 (  5703 PWs)   bands (ev):

   -15.9489 -13.4816 -10.8450  -3.4720   0.0524   8.9813   9.2169   9.8708

          k = 0.3333 0.5774 0.0000 (  5760 PWs)   bands (ev):

   -14.2867 -14.2867 -12.2665  -1.6640  -1.6640   8.9576  11.2395  11.2395

     the Fermi energy is    -1.6640 ev

!    total energy              =     -36.88697811 Ry
     total all-electron energy =      -152.415174 Ry
     estimated scf accuracy    <          4.1E-10 Ry
     smearing contrib. (-TS)   =      -0.00027861 Ry
     internal energy E=F+TS    =     -36.88669950 Ry

     The total energy is F=E-TS. E is the sum of the following terms:
     one-electron contribution =    -154.20776259 Ry
     hartree contribution      =      78.73940170 Ry
     xc contribution           =      -9.28001706 Ry
     ewald contribution        =      60.19597803 Ry
     one-center paw contrib.   =     -12.33429958 Ry

     convergence has been achieved in   6 iterations

     Writing all to output data dir ./tmp/graphene.save/ :
     XML data file, charge density, pseudopotentials, collected wavefunctions

     init_run     :      2.71s CPU      2.43s WALL (       1 calls)
     electrons    :     24.27s CPU     15.52s WALL (       1 calls)

     Called by init_run:
     wfcinit      :      1.18s CPU      0.75s WALL (       1 calls)
     potinit      :      0.71s CPU      0.77s WALL (       1 calls)
     hinit0       :      0.61s CPU      0.64s WALL (       1 calls)

     Called by electrons:
     c_bands      :     18.30s CPU     10.37s WALL (       6 calls)
     sum_band     :      3.37s CPU      2.17s WALL (       6 calls)
     v_of_rho     :      1.38s CPU      1.58s WALL (       7 calls)
     newd         :      0.77s CPU      1.03s WALL (       7 calls)
     PAW_pot      :      0.59s CPU      0.60s WALL (       7 calls)
     mix_rho      :      0.12s CPU      0.12s WALL (       6 calls)

     Called by c_bands:
     init_us_2    :      0.33s CPU      0.20s WALL (     156 calls)
     cegterg      :     17.78s CPU     10.08s WALL (      72 calls)

     Called by *egterg:
     cdiaghg      :      0.15s CPU      0.06s WALL (     408 calls)
     h_psi        :     17.18s CPU     10.02s WALL (     420 calls)
     s_psi        :      0.18s CPU      0.10s WALL (     420 calls)
     g_psi        :      0.10s CPU      0.04s WALL (     336 calls)

     Called by h_psi:
     h_psi:calbec :      0.22s CPU      0.12s WALL (     420 calls)
     vloc_psi     :     16.60s CPU      9.66s WALL (     420 calls)
     add_vuspsi   :      0.29s CPU      0.21s WALL (     420 calls)

     General routines
     calbec       :      0.25s CPU      0.14s WALL (     492 calls)
     fft          :      1.08s CPU      1.08s WALL (      89 calls)
     ffts         :      0.39s CPU      0.39s WALL (      13 calls)
     fftw         :     13.15s CPU      7.91s WALL (    4402 calls)
     interpolate  :      0.45s CPU      0.45s WALL (       7 calls)


     PWSCF        :     27.21s CPU     18.20s WALL


   This run was terminated on:   8: 7: 8   9Sep2025            

=------------------------------------------------------------------------------=
   JOB DONE.
=------------------------------------------------------------------------------=
