
     Program PWSCF v.7.4.1 starts on  9Sep2025 at  8:41:32 

     This program is part of the open-source Quantum ESPRESSO suite
     for quantum simulation of materials; please cite
         "P. Giannozzi et al., J. Phys.:Condens. Matter 21 395502 (2009);
         "P. Giannozzi et al., J. Phys.:Condens. Matter 29 465901 (2017);
         "P. Giannozzi et al., J. Chem. Phys. 152 154105 (2020);
          URL http://www.quantum-espresso.org", 
     in publications or presentations arising from this work. More details at
     http://www.quantum-espresso.org/quote

     Serial version
     8047 MiB available memory on the printing compute node when the environment starts

     Waiting for input...
     Reading input from standard input

     Current dimensions of program PWSCF are:
     Max number of different atomic species (ntypx) = 10
     Max number of k-points (npk) =  40000
     Max angular momentum in pseudopotentials (lmaxx) =  4
     file C.pbe-n-kjpaw_psl.1.0.0.UPF: wavefunction(s)  2S 2P renormalized


     G-vector sticks info
     --------------------
     sticks:   dense  smooth     PW     G-vecs:    dense   smooth      PW
     Sum         511     199     61                56559    14259    2641

     Using Slab Decomposition



     bravais-lattice index     =            4
     lattice parameter (alat)  =       4.6140  a.u.
     unit-cell volume          =     510.4047 (a.u.)^3
     number of atoms/cell      =            2
     number of atomic types    =            1
     number of electrons       =         8.00
     number of Kohn-Sham states=            8
     kinetic-energy cutoff     =      35.0000  Ry
     charge density cutoff     =     350.0000  Ry
     scf convergence threshold =      1.0E-08
     mixing beta               =       0.7000
     number of iterations used =            8  plain     mixing
     Exchange-correlation= SLA  PW   PBX  PBC
                           (   1   4   3   4   0   0   0)

     celldm(1)=   4.614000  celldm(2)=   0.000000  celldm(3)=   6.000000
     celldm(4)=   0.000000  celldm(5)=   0.000000  celldm(6)=   0.000000

     crystal axes: (cart. coord. in units of alat)
               a(1) = (   1.000000   0.000000   0.000000 )  
               a(2) = (  -0.500000   0.866025   0.000000 )  
               a(3) = (   0.000000   0.000000   6.000000 )  

     reciprocal axes: (cart. coord. in units 2 pi/alat)
               b(1) = (  1.000000  0.577350 -0.000000 )  
               b(2) = (  0.000000  1.154701  0.000000 )  
               b(3) = (  0.000000 -0.000000  0.166667 )  


     PseudoPot. # 1 for C  read from file:
     ../../../../../pseudos/C.pbe-n-kjpaw_psl.1.0.0.UPF
     MD5 check sum: 5d2aebdfa2cae82b50a7e79e9516da0f
     Pseudo is Projector augmented-wave + core cor, Zval =  4.0
     Generated using "atomic" code by A. Dal Corso  v.5.1
     Shape of augmentation charge: PSQ
     Using radial grid of 1073 points,  4 beta functions with: 
                l(1) =   0
                l(2) =   0
                l(3) =   1
                l(4) =   1
     Q(r) pseudized with 0 coefficients 


     atomic species   valence    mass     pseudopotential
     C                 4.00    12.01070     C ( 1.00)

     24 Sym. Ops., with inversion, found (12 have fractional translation)



   Cartesian axes

     site n.     atom                  positions (alat units)
         1        C      tau(   1) = (   0.0000000   0.0000000   0.0000000  )
         2        C      tau(   2) = (   0.0000000   0.5773503   0.0000000  )

     number of k points=    12  Gaussian smearing, width (Ry)=  0.0100
                       cart. coord. in units 2pi/alat
        k(    1) = (   0.0000000   0.0000000   0.0000000), wk =   0.0246914
        k(    2) = (   0.0000000   0.1283001   0.0000000), wk =   0.1481481
        k(    3) = (   0.0000000   0.2566001   0.0000000), wk =   0.1481481
        k(    4) = (   0.0000000   0.3849002   0.0000000), wk =   0.1481481
        k(    5) = (   0.0000000   0.5132002   0.0000000), wk =   0.1481481
        k(    6) = (   0.1111111   0.1924501   0.0000000), wk =   0.1481481
        k(    7) = (   0.1111111   0.3207501   0.0000000), wk =   0.2962963
        k(    8) = (   0.1111111   0.4490502   0.0000000), wk =   0.2962963
        k(    9) = (   0.1111111   0.5773503   0.0000000), wk =   0.1481481
        k(   10) = (   0.2222222   0.3849002   0.0000000), wk =   0.1481481
        k(   11) = (   0.2222222   0.5132002   0.0000000), wk =   0.2962963
        k(   12) = (   0.3333333   0.5773503   0.0000000), wk =   0.0493827

     Dense  grid:    56559 G-vectors     FFT dimensions: (  27,  27, 180)

     Smooth grid:    14259 G-vectors     FFT dimensions: (  18,  18, 108)

     Estimated max dynamical RAM per process >      74.74 MB

     Check: negative core charge=   -0.000005

     Initial potential from superposition of free atoms

     starting charge       7.9999, renormalised to       8.0000

     negative rho (up, down):  8.973E-05 0.000E+00
     Starting wfcs are    8 randomized atomic wfcs

     total cpu time spent up to now is        1.4 secs

     Self-consistent Calculation

     iteration #  1     ecut=    35.00 Ry     beta= 0.70
     Davidson diagonalization with overlap
     ethr =  1.00E-02,  avg # of iterations =  6.2

     negative rho (up, down):  1.565E-04 0.000E+00

     total cpu time spent up to now is        2.1 secs

     total energy              =     -36.84848764 Ry
     estimated scf accuracy    <       0.21340218 Ry

     iteration #  2     ecut=    35.00 Ry     beta= 0.70
     Davidson diagonalization with overlap
     ethr =  2.67E-03,  avg # of iterations =  3.2

     negative rho (up, down):  1.868E-04 0.000E+00

     total cpu time spent up to now is        2.6 secs

     total energy              =     -36.88064515 Ry
     estimated scf accuracy    <       0.00238216 Ry

     iteration #  3     ecut=    35.00 Ry     beta= 0.70
     Davidson diagonalization with overlap
     ethr =  2.98E-05,  avg # of iterations =  9.3

     negative rho (up, down):  2.060E-04 0.000E+00

     total cpu time spent up to now is        3.5 secs

     total energy              =     -36.88088597 Ry
     estimated scf accuracy    <       0.00016779 Ry

     iteration #  4     ecut=    35.00 Ry     beta= 0.70
     Davidson diagonalization with overlap
     ethr =  2.10E-06,  avg # of iterations =  2.8

     negative rho (up, down):  2.067E-04 0.000E+00

     total cpu time spent up to now is        4.1 secs

     total energy              =     -36.88089413 Ry
     estimated scf accuracy    <       0.00000087 Ry

     iteration #  5     ecut=    35.00 Ry     beta= 0.70
     Davidson diagonalization with overlap
     ethr =  1.08E-08,  avg # of iterations =  3.1

     negative rho (up, down):  2.068E-04 0.000E+00

     total cpu time spent up to now is        4.6 secs

     total energy              =     -36.88089491 Ry
     estimated scf accuracy    <       0.00000003 Ry

     iteration #  6     ecut=    35.00 Ry     beta= 0.70
     Davidson diagonalization with overlap
     ethr =  3.19E-10,  avg # of iterations =  2.3

     negative rho (up, down):  2.069E-04 0.000E+00

     total cpu time spent up to now is        5.1 secs

     End of self-consistent calculation

          k = 0.0000 0.0000 0.0000 (  1847 PWs)   bands (ev):

   -21.3145  -9.3656  -4.5750  -4.5750   1.4998   2.3521   2.6313   4.7105

          k = 0.0000 0.1283 0.0000 (  1831 PWs)   bands (ev):

   -21.0180  -9.0086  -5.7043  -5.1651   1.9059   2.7610   3.0411   5.1145

          k = 0.0000 0.2566 0.0000 (  1783 PWs)   bands (ev):

   -20.1344  -8.2908  -7.9570  -6.3510   3.1234   3.9815   4.2705   6.2818

          k = 0.0000 0.3849 0.0000 (  1780 PWs)   bands (ev):

   -18.6839 -11.2741  -7.3987  -6.2910   3.4964   5.1408   6.0449   6.2796

          k = 0.0000 0.5132 0.0000 (  1760 PWs)   bands (ev):

   -16.7373 -14.0748  -7.9740  -4.3956   0.7167   6.1768   7.9669   8.8549

          k = 0.1111 0.1925 0.0000 (  1803 PWs)   bands (ev):

   -20.4280  -8.3038  -7.2766  -6.3429   2.7184   3.5771   3.8614   5.9191

          k = 0.1111 0.3208 0.0000 (  1774 PWs)   bands (ev):

   -19.2609  -9.7680  -7.7578  -6.9347   4.3395   4.7850   5.2298   5.5009

          k = 0.1111 0.4491 0.0000 (  1772 PWs)   bands (ev):

   -17.5533 -12.5812  -8.6574  -5.0595   1.8638   6.7461   7.5449   7.6188

          k = 0.1111 0.5774 0.0000 (  1784 PWs)   bands (ev):

   -15.7476 -14.7955  -8.9642  -3.6840   0.0839   7.3960   9.8424   9.9899

          k = 0.2222 0.3849 0.0000 (  1792 PWs)   bands (ev):

   -17.8350 -11.2920  -9.8307  -5.3130   2.5208   6.3542   7.1721   7.5483

          k = 0.2222 0.5132 0.0000 (  1784 PWs)   bands (ev):

   -15.9447 -13.4566 -10.8424  -3.3856   0.2171   9.1100   9.3699  10.2707

          k = 0.3333 0.5774 0.0000 (  1758 PWs)   bands (ev):

   -14.2415 -14.2415 -12.3318  -1.5334  -1.5334   9.1189  11.5305  11.5305

     the Fermi energy is    -1.5334 ev

!    total energy              =     -36.88089492 Ry
     total all-electron energy =      -152.409091 Ry
     estimated scf accuracy    <          1.7E-09 Ry
     smearing contrib. (-TS)   =      -0.00027861 Ry
     internal energy E=F+TS    =     -36.88061630 Ry

     The total energy is F=E-TS. E is the sum of the following terms:
     one-electron contribution =    -155.22513060 Ry
     hartree contribution      =      79.28102847 Ry
     xc contribution           =      -9.31802421 Ry
     ewald contribution        =      60.71783306 Ry
     one-center paw contrib.   =     -12.33632302 Ry

     convergence has been achieved in   6 iterations

     Writing all to output data dir ./tmp/graphene.save/ :
     XML data file, charge density, pseudopotentials, collected wavefunctions

     init_run     :      1.30s CPU      1.24s WALL (       1 calls)
     electrons    :      6.01s CPU      3.70s WALL (       1 calls)

     Called by init_run:
     wfcinit      :      0.33s CPU      0.24s WALL (       1 calls)
     potinit      :      0.36s CPU      0.38s WALL (       1 calls)
     hinit0       :      0.56s CPU      0.56s WALL (       1 calls)

     Called by electrons:
     c_bands      :      3.53s CPU      2.13s WALL (       6 calls)
     sum_band     :      1.06s CPU      0.53s WALL (       6 calls)
     v_of_rho     :      0.79s CPU      0.47s WALL (       7 calls)
     newd         :      0.18s CPU      0.18s WALL (       7 calls)
     PAW_pot      :      0.49s CPU      0.48s WALL (       7 calls)
     mix_rho      :      0.06s CPU      0.04s WALL (       6 calls)

     Called by c_bands:
     init_us_2    :      0.12s CPU      0.06s WALL (     156 calls)
     cegterg      :      3.36s CPU      2.04s WALL (      72 calls)

     Called by *egterg:
     cdiaghg      :      0.10s CPU      0.06s WALL (     395 calls)
     h_psi        :      3.11s CPU      1.89s WALL (     407 calls)
     s_psi        :      0.07s CPU      0.07s WALL (     407 calls)
     g_psi        :      0.03s CPU      0.01s WALL (     323 calls)

     Called by h_psi:
     h_psi:calbec :      0.09s CPU      0.06s WALL (     407 calls)
     vloc_psi     :      2.86s CPU      1.70s WALL (     407 calls)
     add_vuspsi   :      0.14s CPU      0.12s WALL (     407 calls)

     General routines
     calbec       :      0.10s CPU      0.07s WALL (     479 calls)
     fft          :      0.71s CPU      0.62s WALL (      89 calls)
     ffts         :      0.23s CPU      0.23s WALL (      13 calls)
     fftw         :      2.55s CPU      1.55s WALL (    4262 calls)
     interpolate  :      0.24s CPU      0.24s WALL (       7 calls)


     PWSCF        :      7.52s CPU      5.07s WALL


   This run was terminated on:   8:41:37   9Sep2025            

=------------------------------------------------------------------------------=
   JOB DONE.
=------------------------------------------------------------------------------=
