
     Program PWSCF v.7.4.1 starts on  9Sep2025 at 16:49:36 

     This program is part of the open-source Quantum ESPRESSO suite
     for quantum simulation of materials; please cite
         "P. Giannozzi et al., J. Phys.:Condens. Matter 21 395502 (2009);
         "P. Giannozzi et al., J. Phys.:Condens. Matter 29 465901 (2017);
         "P. Giannozzi et al., J. Chem. Phys. 152 154105 (2020);
          URL http://www.quantum-espresso.org", 
     in publications or presentations arising from this work. More details at
     http://www.quantum-espresso.org/quote

     Serial version
     21740 MiB available memory on the printing compute node when the environment starts

     Waiting for input...
     Reading input from standard input

     Current dimensions of program PWSCF are:
     Max number of different atomic species (ntypx) = 10
     Max number of k-points (npk) =  40000
     Max angular momentum in pseudopotentials (lmaxx) =  4
     file C.pbe-n-kjpaw_psl.1.0.0.UPF: wavefunction(s)  2S 2P renormalized


     G-vector sticks info
     --------------------
     sticks:   dense  smooth     PW     G-vecs:    dense   smooth      PW
     Sum         673     265     85                84597    21311    3919

     Using Slab Decomposition



     bravais-lattice index     =            4
     lattice parameter (alat)  =       4.6540  a.u.
     unit-cell volume          =     523.7946 (a.u.)^3
     number of atoms/cell      =            2
     number of atomic types    =            1
     number of electrons       =         8.00
     number of Kohn-Sham states=            8
     kinetic-energy cutoff     =      45.0000  Ry
     charge density cutoff     =     450.0000  Ry
     scf convergence threshold =      1.0E-08
     mixing beta               =       0.7000
     number of iterations used =            8  plain     mixing
     Exchange-correlation= SLA  PW   PBX  PBC
                           (   1   4   3   4   0   0   0)

     celldm(1)=   4.654000  celldm(2)=   0.000000  celldm(3)=   6.000000
     celldm(4)=   0.000000  celldm(5)=   0.000000  celldm(6)=   0.000000

     crystal axes: (cart. coord. in units of alat)
               a(1) = (   1.000000   0.000000   0.000000 )  
               a(2) = (  -0.500000   0.866025   0.000000 )  
               a(3) = (   0.000000   0.000000   6.000000 )  

     reciprocal axes: (cart. coord. in units 2 pi/alat)
               b(1) = (  1.000000  0.577350 -0.000000 )  
               b(2) = (  0.000000  1.154701  0.000000 )  
               b(3) = (  0.000000 -0.000000  0.166667 )  


     PseudoPot. # 1 for C  read from file:
     ../../../../../pseudos/C.pbe-n-kjpaw_psl.1.0.0.UPF
     MD5 check sum: 5d2aebdfa2cae82b50a7e79e9516da0f
     Pseudo is Projector augmented-wave + core cor, Zval =  4.0
     Generated using "atomic" code by A. Dal Corso  v.5.1
     Shape of augmentation charge: PSQ
     Using radial grid of 1073 points,  4 beta functions with: 
                l(1) =   0
                l(2) =   0
                l(3) =   1
                l(4) =   1
     Q(r) pseudized with 0 coefficients 


     atomic species   valence    mass     pseudopotential
     C                 4.00    12.01070     C ( 1.00)

     24 Sym. Ops., with inversion, found (12 have fractional translation)



   Cartesian axes

     site n.     atom                  positions (alat units)
         1        C      tau(   1) = (   0.0000000   0.0000000   0.0000000  )
         2        C      tau(   2) = (   0.0000000   0.5773503   0.0000000  )

     number of k points=     7  Gaussian smearing, width (Ry)=  0.0100
                       cart. coord. in units 2pi/alat
        k(    1) = (   0.0000000   0.0000000   0.0000000), wk =   0.0555556
        k(    2) = (   0.0000000   0.1924501   0.0000000), wk =   0.3333333
        k(    3) = (   0.0000000   0.3849002   0.0000000), wk =   0.3333333
        k(    4) = (   0.0000000  -0.5773503   0.0000000), wk =   0.1666667
        k(    5) = (   0.1666667   0.2886751   0.0000000), wk =   0.3333333
        k(    6) = (   0.1666667   0.4811252   0.0000000), wk =   0.6666667
        k(    7) = (   0.3333333   0.5773503   0.0000000), wk =   0.1111111

     Dense  grid:    84597 G-vectors     FFT dimensions: (  36,  36, 192)

     Smooth grid:    21311 G-vectors     FFT dimensions: (  24,  24, 120)

     Estimated max dynamical RAM per process >     113.61 MB

     Initial potential from superposition of free atoms

     starting charge       7.9999, renormalised to       8.0000

     negative rho (up, down):  1.033E-05 0.000E+00
     Starting wfcs are    8 randomized atomic wfcs

     total cpu time spent up to now is        1.8 secs

     Self-consistent Calculation

     iteration #  1     ecut=    45.00 Ry     beta= 0.70
     Davidson diagonalization with overlap
     ethr =  1.00E-02,  avg # of iterations =  5.4

     negative rho (up, down):  2.524E-05 0.000E+00

     total cpu time spent up to now is        2.6 secs

     total energy              =     -36.85453874 Ry
     estimated scf accuracy    <       0.19784633 Ry

     iteration #  2     ecut=    45.00 Ry     beta= 0.70
     Davidson diagonalization with overlap
     ethr =  2.47E-03,  avg # of iterations =  3.4

     negative rho (up, down):  3.677E-05 0.000E+00

     total cpu time spent up to now is        3.6 secs

     total energy              =     -36.88316669 Ry
     estimated scf accuracy    <       0.00214359 Ry

     iteration #  3     ecut=    45.00 Ry     beta= 0.70
     Davidson diagonalization with overlap
     ethr =  2.68E-05,  avg # of iterations =  8.7

     negative rho (up, down):  4.398E-05 0.000E+00

     total cpu time spent up to now is        4.4 secs

     total energy              =     -36.88339965 Ry
     estimated scf accuracy    <       0.00016005 Ry

     iteration #  4     ecut=    45.00 Ry     beta= 0.70
     Davidson diagonalization with overlap
     ethr =  2.00E-06,  avg # of iterations =  3.6

     negative rho (up, down):  4.487E-05 0.000E+00

     total cpu time spent up to now is        5.1 secs

     total energy              =     -36.88340905 Ry
     estimated scf accuracy    <       0.00000121 Ry

     iteration #  5     ecut=    45.00 Ry     beta= 0.70
     Davidson diagonalization with overlap
     ethr =  1.51E-08,  avg # of iterations =  2.7

     negative rho (up, down):  4.499E-05 0.000E+00

     total cpu time spent up to now is        5.7 secs

     total energy              =     -36.88340985 Ry
     estimated scf accuracy    <       0.00000002 Ry

     iteration #  6     ecut=    45.00 Ry     beta= 0.70
     Davidson diagonalization with overlap
     ethr =  3.03E-10,  avg # of iterations =  2.6

     negative rho (up, down):  4.505E-05 0.000E+00

     total cpu time spent up to now is        6.4 secs

     End of self-consistent calculation

          k = 0.0000 0.0000 0.0000 (  2603 PWs)   bands (ev):

   -21.2235  -9.3122  -4.7152  -4.7152   1.5496   2.4485   2.8671   4.8426

          k = 0.0000 0.1925 0.0000 (  2639 PWs)   bands (ev):

   -20.5679  -8.5311  -7.0087  -5.8511   2.4443   3.3487   3.7762   5.7340

          k = 0.0000 0.3849 0.0000 (  2674 PWs)   bands (ev):

   -18.6345 -11.3208  -7.4710  -6.3062   3.2626   5.1108   6.0627   6.0899

          k = 0.0000-0.5774 0.0000 (  2688 PWs)   bands (ev):

   -15.9661 -14.9388  -8.1088  -4.0323   0.0192   5.7619   9.4407   9.5868

          k = 0.1667 0.2887 0.0000 (  2649 PWs)   bands (ev):

   -19.2733  -9.4493  -8.1048  -7.0153   4.2316   4.7372   5.1346   5.5953

          k = 0.1667 0.4811 0.0000 (  2676 PWs)   bands (ev):

   -16.7838 -13.0969  -9.7414  -4.3279   0.8648   7.7514   8.4165   8.5493

          k = 0.3333 0.5774 0.0000 (  2721 PWs)   bands (ev):

   -14.2847 -14.2847 -12.2637  -1.6624  -1.6624   8.9583  11.2414  11.2415

     the Fermi energy is    -1.6624 ev

!    total energy              =     -36.88340986 Ry
     total all-electron energy =      -152.411606 Ry
     estimated scf accuracy    <          3.8E-10 Ry
     smearing contrib. (-TS)   =      -0.00062688 Ry
     internal energy E=F+TS    =     -36.88278298 Ry

     The total energy is F=E-TS. E is the sum of the following terms:
     one-electron contribution =    -154.20536829 Ry
     hartree contribution      =      78.73996643 Ry
     xc contribution           =      -9.27952473 Ry
     ewald contribution        =      60.19597803 Ry
     one-center paw contrib.   =     -12.33383442 Ry

     convergence has been achieved in   6 iterations

     Writing all to output data dir ./tmp/graphene.save/ :
     XML data file, charge density, pseudopotentials, collected wavefunctions

     init_run     :      1.74s CPU      1.70s WALL (       1 calls)
     electrons    :      6.49s CPU      4.58s WALL (       1 calls)

     Called by init_run:
     wfcinit      :      0.45s CPU      0.36s WALL (       1 calls)
     potinit      :      0.59s CPU      0.61s WALL (       1 calls)
     hinit0       :      0.62s CPU      0.63s WALL (       1 calls)

     Called by electrons:
     c_bands      :      3.63s CPU      2.28s WALL (       6 calls)
     sum_band     :      1.29s CPU      0.76s WALL (       6 calls)
     v_of_rho     :      0.78s CPU      0.71s WALL (       7 calls)
     newd         :      0.33s CPU      0.44s WALL (       7 calls)
     PAW_pot      :      0.51s CPU      0.51s WALL (       7 calls)
     mix_rho      :      0.09s CPU      0.06s WALL (       6 calls)

     Called by c_bands:
     init_us_2    :      0.08s CPU      0.05s WALL (      91 calls)
     cegterg      :      3.51s CPU      2.21s WALL (      42 calls)

     Called by *egterg:
     cdiaghg      :      0.07s CPU      0.03s WALL (     227 calls)
     h_psi        :      3.40s CPU      2.23s WALL (     234 calls)
     s_psi        :      0.07s CPU      0.06s WALL (     234 calls)
     g_psi        :      0.03s CPU      0.01s WALL (     185 calls)

     Called by h_psi:
     h_psi:calbec :      0.09s CPU      0.07s WALL (     234 calls)
     vloc_psi     :      3.09s CPU      1.90s WALL (     234 calls)
     add_vuspsi   :      0.20s CPU      0.25s WALL (     234 calls)

     General routines
     calbec       :      0.10s CPU      0.08s WALL (     276 calls)
     fft          :      0.78s CPU      0.73s WALL (      89 calls)
     ffts         :      0.43s CPU      0.43s WALL (      13 calls)
     fftw         :      2.53s CPU      1.63s WALL (    2472 calls)
     interpolate  :      0.44s CPU      0.44s WALL (       7 calls)


     PWSCF        :      8.44s CPU      6.42s WALL


   This run was terminated on:  16:49:43   9Sep2025            

=------------------------------------------------------------------------------=
   JOB DONE.
=------------------------------------------------------------------------------=
