
     Program PWSCF v.7.4.1 starts on  9Sep2025 at 17:13: 8 

     This program is part of the open-source Quantum ESPRESSO suite
     for quantum simulation of materials; please cite
         "P. Giannozzi et al., J. Phys.:Condens. Matter 21 395502 (2009);
         "P. Giannozzi et al., J. Phys.:Condens. Matter 29 465901 (2017);
         "P. Giannozzi et al., J. Chem. Phys. 152 154105 (2020);
          URL http://www.quantum-espresso.org", 
     in publications or presentations arising from this work. More details at
     http://www.quantum-espresso.org/quote

     Serial version
     21865 MiB available memory on the printing compute node when the environment starts

     Waiting for input...
     Reading input from standard input

     Current dimensions of program PWSCF are:
     Max number of different atomic species (ntypx) = 10
     Max number of k-points (npk) =  40000
     Max angular momentum in pseudopotentials (lmaxx) =  4
     file C.pbe-n-kjpaw_psl.1.0.0.UPF: wavefunction(s)  2S 2P renormalized


     G-vector sticks info
     --------------------
     sticks:   dense  smooth     PW     G-vecs:    dense   smooth      PW
     Sum         661     253     85                82267    20639    3715

     Using Slab Decomposition



     bravais-lattice index     =            4
     lattice parameter (alat)  =       4.6140  a.u.
     unit-cell volume          =     510.4047 (a.u.)^3
     number of atoms/cell      =            2
     number of atomic types    =            1
     number of electrons       =         8.00
     number of Kohn-Sham states=            8
     kinetic-energy cutoff     =      45.0000  Ry
     charge density cutoff     =     450.0000  Ry
     scf convergence threshold =      1.0E-08
     mixing beta               =       0.7000
     number of iterations used =            8  plain     mixing
     Exchange-correlation= SLA  PW   PBX  PBC
                           (   1   4   3   4   0   0   0)

     celldm(1)=   4.614000  celldm(2)=   0.000000  celldm(3)=   6.000000
     celldm(4)=   0.000000  celldm(5)=   0.000000  celldm(6)=   0.000000

     crystal axes: (cart. coord. in units of alat)
               a(1) = (   1.000000   0.000000   0.000000 )  
               a(2) = (  -0.500000   0.866025   0.000000 )  
               a(3) = (   0.000000   0.000000   6.000000 )  

     reciprocal axes: (cart. coord. in units 2 pi/alat)
               b(1) = (  1.000000  0.577350 -0.000000 )  
               b(2) = (  0.000000  1.154701  0.000000 )  
               b(3) = (  0.000000 -0.000000  0.166667 )  


     PseudoPot. # 1 for C  read from file:
     ../../../../../pseudos/C.pbe-n-kjpaw_psl.1.0.0.UPF
     MD5 check sum: 5d2aebdfa2cae82b50a7e79e9516da0f
     Pseudo is Projector augmented-wave + core cor, Zval =  4.0
     Generated using "atomic" code by A. Dal Corso  v.5.1
     Shape of augmentation charge: PSQ
     Using radial grid of 1073 points,  4 beta functions with: 
                l(1) =   0
                l(2) =   0
                l(3) =   1
                l(4) =   1
     Q(r) pseudized with 0 coefficients 


     atomic species   valence    mass     pseudopotential
     C                 4.00    12.01070     C ( 1.00)

     24 Sym. Ops., with inversion, found (12 have fractional translation)



   Cartesian axes

     site n.     atom                  positions (alat units)
         1        C      tau(   1) = (   0.0000000   0.0000000   0.0000000  )
         2        C      tau(   2) = (   0.0000000   0.5773503   0.0000000  )

     number of k points=    14  Gaussian smearing, width (Ry)=  0.0100
                       cart. coord. in units 2pi/alat
        k(    1) = (   0.0000000   0.0000000   0.0000000), wk =   0.0200000
        k(    2) = (   0.0000000   0.1154701   0.0000000), wk =   0.1200000
        k(    3) = (   0.0000000   0.2309401   0.0000000), wk =   0.1200000
        k(    4) = (   0.0000000   0.3464102   0.0000000), wk =   0.1200000
        k(    5) = (   0.0000000   0.4618802   0.0000000), wk =   0.1200000
        k(    6) = (   0.0000000  -0.5773503   0.0000000), wk =   0.0600000
        k(    7) = (   0.1000000   0.1732051   0.0000000), wk =   0.1200000
        k(    8) = (   0.1000000   0.2886751   0.0000000), wk =   0.2400000
        k(    9) = (   0.1000000   0.4041452   0.0000000), wk =   0.2400000
        k(   10) = (   0.1000000   0.5196152   0.0000000), wk =   0.2400000
        k(   11) = (   0.2000000   0.3464102   0.0000000), wk =   0.1200000
        k(   12) = (   0.2000000   0.4618802   0.0000000), wk =   0.2400000
        k(   13) = (   0.2000000   0.5773503   0.0000000), wk =   0.1200000
        k(   14) = (   0.3000000   0.5196152   0.0000000), wk =   0.1200000

     Dense  grid:    82267 G-vectors     FFT dimensions: (  36,  36, 192)

     Smooth grid:    20639 G-vectors     FFT dimensions: (  24,  24, 120)

     Estimated max dynamical RAM per process >     113.20 MB

     Initial potential from superposition of free atoms

     starting charge       7.9999, renormalised to       8.0000

     negative rho (up, down):  9.733E-06 0.000E+00
     Starting wfcs are    8 randomized atomic wfcs

     total cpu time spent up to now is        1.8 secs

     Self-consistent Calculation

     iteration #  1     ecut=    45.00 Ry     beta= 0.70
     Davidson diagonalization with overlap
     ethr =  1.00E-02,  avg # of iterations =  5.7

     negative rho (up, down):  2.401E-05 0.000E+00

     total cpu time spent up to now is        2.9 secs

     total energy              =     -36.85493321 Ry
     estimated scf accuracy    <       0.21221647 Ry

     iteration #  2     ecut=    45.00 Ry     beta= 0.70
     Davidson diagonalization with overlap
     ethr =  2.65E-03,  avg # of iterations =  2.8

     negative rho (up, down):  3.512E-05 0.000E+00

     total cpu time spent up to now is        3.8 secs

     total energy              =     -36.88600846 Ry
     estimated scf accuracy    <       0.00219534 Ry

     iteration #  3     ecut=    45.00 Ry     beta= 0.70
     Davidson diagonalization with overlap
     c_bands:  1 eigenvalues not converged
     ethr =  2.74E-05,  avg # of iterations = 10.0

     negative rho (up, down):  4.283E-05 0.000E+00

     total cpu time spent up to now is        5.2 secs

     total energy              =     -36.88626336 Ry
     estimated scf accuracy    <       0.00016466 Ry

     iteration #  4     ecut=    45.00 Ry     beta= 0.70
     Davidson diagonalization with overlap
     ethr =  2.06E-06,  avg # of iterations =  3.9

     negative rho (up, down):  4.374E-05 0.000E+00

     total cpu time spent up to now is        6.0 secs

     total energy              =     -36.88627281 Ry
     estimated scf accuracy    <       0.00000135 Ry

     iteration #  5     ecut=    45.00 Ry     beta= 0.70
     Davidson diagonalization with overlap
     ethr =  1.68E-08,  avg # of iterations =  2.9

     negative rho (up, down):  4.386E-05 0.000E+00

     total cpu time spent up to now is        6.8 secs

     total energy              =     -36.88627362 Ry
     estimated scf accuracy    <       0.00000002 Ry

     iteration #  6     ecut=    45.00 Ry     beta= 0.70
     Davidson diagonalization with overlap
     ethr =  3.05E-10,  avg # of iterations =  2.6

     negative rho (up, down):  4.391E-05 0.000E+00

     total cpu time spent up to now is        7.7 secs

     End of self-consistent calculation

          k = 0.0000 0.0000 0.0000 (  2579 PWs)   bands (ev):

   -21.3088  -9.3644  -4.5807  -4.5807   1.5929   2.5022   2.9280   4.9442

          k = 0.0000 0.1155 0.0000 (  2561 PWs)   bands (ev):

   -21.0686  -9.0756  -5.5091  -5.0691   1.9206   2.8326   3.2608   5.2720

          k = 0.0000 0.2309 0.0000 (  2597 PWs)   bands (ev):

   -20.3518  -8.2205  -7.7208  -6.1151   2.9031   3.8198   4.2593   6.2425

          k = 0.0000 0.3464 0.0000 (  2582 PWs)   bands (ev):

   -19.1712 -10.3786  -7.1314  -6.8456   4.4297   4.5345   5.5119   5.9164

          k = 0.0000 0.4619 0.0000 (  2612 PWs)   bands (ev):

   -17.5585 -13.0017  -7.8182  -5.1167   1.6888   6.2383   6.8449   7.7707

          k = 0.0000-0.5774 0.0000 (  2576 PWs)   bands (ev):

   -15.9318 -14.9824  -8.0573  -3.9594   0.1553   6.1441   9.6266   9.7714

          k = 0.1000 0.1732 0.0000 (  2575 PWs)   bands (ev):

   -20.5901  -8.5032  -6.8735  -6.0450   2.5762   3.4920   3.9268   5.9248

          k = 0.1000 0.2887 0.0000 (  2594 PWs)   bands (ev):

   -19.6415  -9.0671  -7.3839  -7.3209   3.8853   4.7941   5.2585   5.6184

          k = 0.1000 0.4041 0.0000 (  2599 PWs)   bands (ev):

   -18.2434 -11.6221  -8.2583  -5.7995   2.8959   5.8361   6.7724   7.2290

          k = 0.1000 0.5196 0.0000 (  2621 PWs)   bands (ev):

   -16.4669 -14.0545  -8.7454  -4.1109   0.5563   7.1971   8.4286   9.3059

          k = 0.2000 0.3464 0.0000 (  2587 PWs)   bands (ev):

   -18.4750 -10.5473  -9.1311  -6.0380   3.4950   5.5159   6.4150   6.9229

          k = 0.2000 0.4619 0.0000 (  2628 PWs)   bands (ev):

   -16.8921 -12.5821 -10.2199  -4.3216   1.2316   7.7694   8.5317   9.2399

          k = 0.2000 0.5774 0.0000 (  2625 PWs)   bands (ev):

   -15.3201 -14.3978 -10.5258  -3.0786  -0.2155   9.6235   9.8704  10.4501

          k = 0.3000 0.5196 0.0000 (  2635 PWs)   bands (ev):

   -15.2226 -13.4981 -11.9217  -2.5914  -0.5005   9.2446  10.2152  11.7814

     the Fermi energy is    -1.4064 ev

!    total energy              =     -36.88627362 Ry
     total all-electron energy =      -152.414469 Ry
     estimated scf accuracy    <          7.8E-10 Ry
     smearing contrib. (-TS)   =      -0.00000000 Ry
     internal energy E=F+TS    =     -36.88627362 Ry

     The total energy is F=E-TS. E is the sum of the following terms:
     one-electron contribution =    -155.23588273 Ry
     hartree contribution      =      79.28584511 Ry
     xc contribution           =      -9.31841353 Ry
     ewald contribution        =      60.71783306 Ry
     one-center paw contrib.   =     -12.33565554 Ry

     convergence has been achieved in   6 iterations

     Writing all to output data dir ./tmp/graphene.save/ :
     XML data file, charge density, pseudopotentials, collected wavefunctions

     init_run     :      1.79s CPU      1.68s WALL (       1 calls)
     electrons    :      9.85s CPU      5.90s WALL (       1 calls)

     Called by init_run:
     wfcinit      :      0.60s CPU      0.44s WALL (       1 calls)
     potinit      :      0.55s CPU      0.57s WALL (       1 calls)
     hinit0       :      0.58s CPU      0.58s WALL (       1 calls)

     Called by electrons:
     c_bands      :      6.74s CPU      3.66s WALL (       6 calls)
     sum_band     :      1.62s CPU      0.89s WALL (       6 calls)
     v_of_rho     :      0.80s CPU      0.64s WALL (       7 calls)
     newd         :      0.27s CPU      0.36s WALL (       7 calls)
     PAW_pot      :      0.46s CPU      0.46s WALL (       7 calls)
     mix_rho      :      0.10s CPU      0.05s WALL (       6 calls)

     Called by c_bands:
     init_us_2    :      0.20s CPU      0.10s WALL (     182 calls)
     cegterg      :      6.47s CPU      3.53s WALL (      84 calls)

     Called by *egterg:
     cdiaghg      :      0.15s CPU      0.06s WALL (     474 calls)
     h_psi        :      6.11s CPU      3.54s WALL (     488 calls)
     s_psi        :      0.08s CPU      0.05s WALL (     488 calls)
     g_psi        :      0.05s CPU      0.02s WALL (     390 calls)

     Called by h_psi:
     h_psi:calbec :      0.13s CPU      0.07s WALL (     488 calls)
     vloc_psi     :      5.74s CPU      3.33s WALL (     488 calls)
     add_vuspsi   :      0.20s CPU      0.13s WALL (     488 calls)

     General routines
     calbec       :      0.15s CPU      0.08s WALL (     572 calls)
     fft          :      0.75s CPU      0.67s WALL (      89 calls)
     ffts         :      0.40s CPU      0.40s WALL (      13 calls)
     fftw         :      4.75s CPU      2.87s WALL (    5042 calls)
     interpolate  :      0.41s CPU      0.41s WALL (       7 calls)


     PWSCF        :     11.82s CPU      7.75s WALL


   This run was terminated on:  17:13:16   9Sep2025            

=------------------------------------------------------------------------------=
   JOB DONE.
=------------------------------------------------------------------------------=
