
     Program PWSCF v.7.4.1 starts on  9Sep2025 at 17: 1: 0 

     This program is part of the open-source Quantum ESPRESSO suite
     for quantum simulation of materials; please cite
         "P. Giannozzi et al., J. Phys.:Condens. Matter 21 395502 (2009);
         "P. Giannozzi et al., J. Phys.:Condens. Matter 29 465901 (2017);
         "P. Giannozzi et al., J. Chem. Phys. 152 154105 (2020);
          URL http://www.quantum-espresso.org", 
     in publications or presentations arising from this work. More details at
     http://www.quantum-espresso.org/quote

     Serial version
     22132 MiB available memory on the printing compute node when the environment starts

     Waiting for input...
     Reading input from standard input

     Current dimensions of program PWSCF are:
     Max number of different atomic species (ntypx) = 10
     Max number of k-points (npk) =  40000
     Max angular momentum in pseudopotentials (lmaxx) =  4
     file C.pbe-n-kjpaw_psl.1.0.0.UPF: wavefunction(s)  2S 2P renormalized


     G-vector sticks info
     --------------------
     sticks:   dense  smooth     PW     G-vecs:    dense   smooth      PW
     Sum         673     271     85                86543    21859    3883

     Using Slab Decomposition



     bravais-lattice index     =            4
     lattice parameter (alat)  =       4.6940  a.u.
     unit-cell volume          =     537.4167 (a.u.)^3
     number of atoms/cell      =            2
     number of atomic types    =            1
     number of electrons       =         8.00
     number of Kohn-Sham states=            8
     kinetic-energy cutoff     =      45.0000  Ry
     charge density cutoff     =     450.0000  Ry
     scf convergence threshold =      1.0E-08
     mixing beta               =       0.7000
     number of iterations used =            8  plain     mixing
     Exchange-correlation= SLA  PW   PBX  PBC
                           (   1   4   3   4   0   0   0)

     celldm(1)=   4.694000  celldm(2)=   0.000000  celldm(3)=   6.000000
     celldm(4)=   0.000000  celldm(5)=   0.000000  celldm(6)=   0.000000

     crystal axes: (cart. coord. in units of alat)
               a(1) = (   1.000000   0.000000   0.000000 )  
               a(2) = (  -0.500000   0.866025   0.000000 )  
               a(3) = (   0.000000   0.000000   6.000000 )  

     reciprocal axes: (cart. coord. in units 2 pi/alat)
               b(1) = (  1.000000  0.577350 -0.000000 )  
               b(2) = (  0.000000  1.154701  0.000000 )  
               b(3) = (  0.000000 -0.000000  0.166667 )  


     PseudoPot. # 1 for C  read from file:
     ../../../../../pseudos/C.pbe-n-kjpaw_psl.1.0.0.UPF
     MD5 check sum: 5d2aebdfa2cae82b50a7e79e9516da0f
     Pseudo is Projector augmented-wave + core cor, Zval =  4.0
     Generated using "atomic" code by A. Dal Corso  v.5.1
     Shape of augmentation charge: PSQ
     Using radial grid of 1073 points,  4 beta functions with: 
                l(1) =   0
                l(2) =   0
                l(3) =   1
                l(4) =   1
     Q(r) pseudized with 0 coefficients 


     atomic species   valence    mass     pseudopotential
     C                 4.00    12.01070     C ( 1.00)

     24 Sym. Ops., with inversion, found (12 have fractional translation)



   Cartesian axes

     site n.     atom                  positions (alat units)
         1        C      tau(   1) = (   0.0000000   0.0000000   0.0000000  )
         2        C      tau(   2) = (   0.0000000   0.5773503   0.0000000  )

     number of k points=     8  Gaussian smearing, width (Ry)=  0.0100
                       cart. coord. in units 2pi/alat
        k(    1) = (   0.0000000   0.0000000   0.0000000), wk =   0.0408163
        k(    2) = (   0.0000000   0.1649572   0.0000000), wk =   0.2448980
        k(    3) = (   0.0000000   0.3299144   0.0000000), wk =   0.2448980
        k(    4) = (   0.0000000   0.4948717   0.0000000), wk =   0.2448980
        k(    5) = (   0.1428571   0.2474358   0.0000000), wk =   0.2448980
        k(    6) = (   0.1428571   0.4123930   0.0000000), wk =   0.4897959
        k(    7) = (   0.1428571   0.5773503   0.0000000), wk =   0.2448980
        k(    8) = (   0.2857143   0.4948717   0.0000000), wk =   0.2448980

     Dense  grid:    86543 G-vectors     FFT dimensions: (  36,  36, 192)

     Smooth grid:    21859 G-vectors     FFT dimensions: (  24,  24, 125)

     Estimated max dynamical RAM per process >     116.17 MB

     Initial potential from superposition of free atoms

     starting charge       7.9999, renormalised to       8.0000

     negative rho (up, down):  1.080E-05 0.000E+00
     Starting wfcs are    8 randomized atomic wfcs

     total cpu time spent up to now is        1.3 secs

     Self-consistent Calculation

     iteration #  1     ecut=    45.00 Ry     beta= 0.70
     Davidson diagonalization with overlap
     ethr =  1.00E-02,  avg # of iterations =  5.5

     negative rho (up, down):  2.579E-05 0.000E+00

     total cpu time spent up to now is        2.2 secs

     total energy              =     -36.86118439 Ry
     estimated scf accuracy    <       0.18365441 Ry

     iteration #  2     ecut=    45.00 Ry     beta= 0.70
     Davidson diagonalization with overlap
     ethr =  2.30E-03,  avg # of iterations =  3.5

     negative rho (up, down):  3.676E-05 0.000E+00

     total cpu time spent up to now is        2.8 secs

     total energy              =     -36.88725960 Ry
     estimated scf accuracy    <       0.00210450 Ry

     iteration #  3     ecut=    45.00 Ry     beta= 0.70
     Davidson diagonalization with overlap
     ethr =  2.63E-05,  avg # of iterations =  8.5

     negative rho (up, down):  4.352E-05 0.000E+00

     total cpu time spent up to now is        3.7 secs

     total energy              =     -36.88749224 Ry
     estimated scf accuracy    <       0.00015441 Ry

     iteration #  4     ecut=    45.00 Ry     beta= 0.70
     Davidson diagonalization with overlap
     ethr =  1.93E-06,  avg # of iterations =  3.5

     negative rho (up, down):  4.435E-05 0.000E+00

     total cpu time spent up to now is        4.3 secs

     total energy              =     -36.88750104 Ry
     estimated scf accuracy    <       0.00000117 Ry

     iteration #  5     ecut=    45.00 Ry     beta= 0.70
     Davidson diagonalization with overlap
     ethr =  1.46E-08,  avg # of iterations =  3.4

     negative rho (up, down):  4.449E-05 0.000E+00

     total cpu time spent up to now is        5.0 secs

     total energy              =     -36.88750188 Ry
     estimated scf accuracy    <       0.00000003 Ry

     iteration #  6     ecut=    45.00 Ry     beta= 0.70
     Davidson diagonalization with overlap
     ethr =  3.35E-10,  avg # of iterations =  2.1

     negative rho (up, down):  4.454E-05 0.000E+00

     total cpu time spent up to now is        5.6 secs

     End of self-consistent calculation

          k = 0.0000 0.0000 0.0000 (  2641 PWs)   bands (ev):

   -21.1420  -9.2637  -4.8492  -4.8492   1.5074   2.3961   2.8080   4.7451

          k = 0.0000 0.1650 0.0000 (  2709 PWs)   bands (ev):

   -20.6673  -8.7004  -6.5875  -5.7114   2.1538   3.0464   3.4648   5.3895

          k = 0.0000 0.3299 0.0000 (  2729 PWs)   bands (ev):

   -19.2600 -10.1284  -7.1528  -7.0661   4.0868   4.3015   5.0424   5.4274

          k = 0.0000 0.4949 0.0000 (  2748 PWs)   bands (ev):

   -17.0082 -13.7159  -8.0446  -4.7455   0.7039   5.4479   7.2980   8.2126

          k = 0.1429 0.2474 0.0000 (  2729 PWs)   bands (ev):

   -19.7262  -8.6702  -7.5975  -7.4315   3.4459   4.3401   4.7789   5.4945

          k = 0.1429 0.4124 0.0000 (  2753 PWs)   bands (ev):

   -17.8881 -11.8171  -9.0313  -5.5326   2.1287   6.0107   6.8892   7.3852

          k = 0.1429 0.5774 0.0000 (  2745 PWs)   bands (ev):

   -15.6933 -14.6123  -9.5441  -3.6741  -0.2717   7.3143   9.6679   9.8494

          k = 0.2857 0.4949 0.0000 (  2767 PWs)   bands (ev):

   -15.7425 -13.2553 -11.5390  -3.2630  -0.3210   8.9147   9.1128  10.6383

     the Fermi energy is    -0.9392 ev

!    total energy              =     -36.88750189 Ry
     total all-electron energy =      -152.415698 Ry
     estimated scf accuracy    <          9.1E-10 Ry
     smearing contrib. (-TS)   =      -0.00000000 Ry
     internal energy E=F+TS    =     -36.88750189 Ry

     The total energy is F=E-TS. E is the sum of the following terms:
     one-electron contribution =    -153.19766867 Ry
     hartree contribution      =      78.20026451 Ry
     xc contribution           =      -9.24088643 Ry
     ewald contribution        =      59.68301699 Ry
     one-center paw contrib.   =     -12.33222829 Ry

     convergence has been achieved in   6 iterations

     Writing all to output data dir ./tmp/graphene.save/ :
     XML data file, charge density, pseudopotentials, collected wavefunctions

     init_run     :      1.27s CPU      1.21s WALL (       1 calls)
     electrons    :      6.77s CPU      4.22s WALL (       1 calls)

     Called by init_run:
     wfcinit      :      0.31s CPU      0.20s WALL (       1 calls)
     potinit      :      0.31s CPU      0.34s WALL (       1 calls)
     hinit0       :      0.57s CPU      0.58s WALL (       1 calls)

     Called by electrons:
     c_bands      :      3.91s CPU      2.10s WALL (       6 calls)
     sum_band     :      1.40s CPU      0.76s WALL (       6 calls)
     v_of_rho     :      0.74s CPU      0.63s WALL (       7 calls)
     newd         :      0.29s CPU      0.37s WALL (       7 calls)
     PAW_pot      :      0.46s CPU      0.46s WALL (       7 calls)
     mix_rho      :      0.10s CPU      0.05s WALL (       6 calls)

     Called by c_bands:
     init_us_2    :      0.10s CPU      0.06s WALL (     104 calls)
     cegterg      :      3.78s CPU      2.02s WALL (      48 calls)

     Called by *egterg:
     cdiaghg      :      0.08s CPU      0.03s WALL (     260 calls)
     h_psi        :      3.59s CPU      2.00s WALL (     268 calls)
     s_psi        :      0.04s CPU      0.02s WALL (     268 calls)
     g_psi        :      0.03s CPU      0.01s WALL (     212 calls)

     Called by h_psi:
     h_psi:calbec :      0.08s CPU      0.03s WALL (     268 calls)
     vloc_psi     :      3.43s CPU      1.92s WALL (     268 calls)
     add_vuspsi   :      0.07s CPU      0.04s WALL (     268 calls)

     General routines
     calbec       :      0.09s CPU      0.04s WALL (     316 calls)
     fft          :      0.74s CPU      0.66s WALL (      89 calls)
     ffts         :      0.18s CPU      0.17s WALL (      13 calls)
     fftw         :      2.84s CPU      1.69s WALL (    2822 calls)
     interpolate  :      0.18s CPU      0.18s WALL (       7 calls)


     PWSCF        :      8.24s CPU      5.58s WALL


   This run was terminated on:  17: 1: 5   9Sep2025            

=------------------------------------------------------------------------------=
   JOB DONE.
=------------------------------------------------------------------------------=
