
     Program PWSCF v.7.4.1 starts on  9Sep2025 at 16:51:23 

     This program is part of the open-source Quantum ESPRESSO suite
     for quantum simulation of materials; please cite
         "P. Giannozzi et al., J. Phys.:Condens. Matter 21 395502 (2009);
         "P. Giannozzi et al., J. Phys.:Condens. Matter 29 465901 (2017);
         "P. Giannozzi et al., J. Chem. Phys. 152 154105 (2020);
          URL http://www.quantum-espresso.org", 
     in publications or presentations arising from this work. More details at
     http://www.quantum-espresso.org/quote

     Serial version
     22205 MiB available memory on the printing compute node when the environment starts

     Waiting for input...
     Reading input from standard input

     Current dimensions of program PWSCF are:
     Max number of different atomic species (ntypx) = 10
     Max number of k-points (npk) =  40000
     Max angular momentum in pseudopotentials (lmaxx) =  4
     file C.pbe-n-kjpaw_psl.1.0.0.UPF: wavefunction(s)  2S 2P renormalized


     G-vector sticks info
     --------------------
     sticks:   dense  smooth     PW     G-vecs:    dense   smooth      PW
     Sum         673     265     85                84597    21311    3847

     Using Slab Decomposition



     bravais-lattice index     =            4
     lattice parameter (alat)  =       4.6540  a.u.
     unit-cell volume          =     523.7946 (a.u.)^3
     number of atoms/cell      =            2
     number of atomic types    =            1
     number of electrons       =         8.00
     number of Kohn-Sham states=            8
     kinetic-energy cutoff     =      45.0000  Ry
     charge density cutoff     =     450.0000  Ry
     scf convergence threshold =      1.0E-08
     mixing beta               =       0.7000
     number of iterations used =            8  plain     mixing
     Exchange-correlation= SLA  PW   PBX  PBC
                           (   1   4   3   4   0   0   0)

     celldm(1)=   4.654000  celldm(2)=   0.000000  celldm(3)=   6.000000
     celldm(4)=   0.000000  celldm(5)=   0.000000  celldm(6)=   0.000000

     crystal axes: (cart. coord. in units of alat)
               a(1) = (   1.000000   0.000000   0.000000 )  
               a(2) = (  -0.500000   0.866025   0.000000 )  
               a(3) = (   0.000000   0.000000   6.000000 )  

     reciprocal axes: (cart. coord. in units 2 pi/alat)
               b(1) = (  1.000000  0.577350 -0.000000 )  
               b(2) = (  0.000000  1.154701  0.000000 )  
               b(3) = (  0.000000 -0.000000  0.166667 )  


     PseudoPot. # 1 for C  read from file:
     ../../../../../pseudos/C.pbe-n-kjpaw_psl.1.0.0.UPF
     MD5 check sum: 5d2aebdfa2cae82b50a7e79e9516da0f
     Pseudo is Projector augmented-wave + core cor, Zval =  4.0
     Generated using "atomic" code by A. Dal Corso  v.5.1
     Shape of augmentation charge: PSQ
     Using radial grid of 1073 points,  4 beta functions with: 
                l(1) =   0
                l(2) =   0
                l(3) =   1
                l(4) =   1
     Q(r) pseudized with 0 coefficients 


     atomic species   valence    mass     pseudopotential
     C                 4.00    12.01070     C ( 1.00)

     24 Sym. Ops., with inversion, found (12 have fractional translation)



   Cartesian axes

     site n.     atom                  positions (alat units)
         1        C      tau(   1) = (   0.0000000   0.0000000   0.0000000  )
         2        C      tau(   2) = (   0.0000000   0.5773503   0.0000000  )

     number of k points=    21  Gaussian smearing, width (Ry)=  0.0100
                       cart. coord. in units 2pi/alat
        k(    1) = (   0.0000000   0.0000000   0.0000000), wk =   0.0118343
        k(    2) = (   0.0000000   0.0888231   0.0000000), wk =   0.0710059
        k(    3) = (   0.0000000   0.1776462   0.0000000), wk =   0.0710059
        k(    4) = (   0.0000000   0.2664694   0.0000000), wk =   0.0710059
        k(    5) = (   0.0000000   0.3552925   0.0000000), wk =   0.0710059
        k(    6) = (   0.0000000   0.4441156   0.0000000), wk =   0.0710059
        k(    7) = (   0.0000000   0.5329387   0.0000000), wk =   0.0710059
        k(    8) = (   0.0769231   0.1332347   0.0000000), wk =   0.0710059
        k(    9) = (   0.0769231   0.2220578   0.0000000), wk =   0.1420118
        k(   10) = (   0.0769231   0.3108809   0.0000000), wk =   0.1420118
        k(   11) = (   0.0769231   0.3997040   0.0000000), wk =   0.1420118
        k(   12) = (   0.0769231   0.4885272   0.0000000), wk =   0.1420118
        k(   13) = (   0.0769231   0.5773503   0.0000000), wk =   0.0710059
        k(   14) = (   0.1538462   0.2664694   0.0000000), wk =   0.0710059
        k(   15) = (   0.1538462   0.3552925   0.0000000), wk =   0.1420118
        k(   16) = (   0.1538462   0.4441156   0.0000000), wk =   0.1420118
        k(   17) = (   0.1538462   0.5329387   0.0000000), wk =   0.1420118
        k(   18) = (   0.2307692   0.3997040   0.0000000), wk =   0.0710059
        k(   19) = (   0.2307692   0.4885272   0.0000000), wk =   0.1420118
        k(   20) = (   0.2307692   0.5773503   0.0000000), wk =   0.0710059
        k(   21) = (   0.3076923   0.5329387   0.0000000), wk =   0.0710059

     Dense  grid:    84597 G-vectors     FFT dimensions: (  36,  36, 192)

     Smooth grid:    21311 G-vectors     FFT dimensions: (  24,  24, 120)

     Estimated max dynamical RAM per process >     118.18 MB

     Initial potential from superposition of free atoms

     starting charge       7.9999, renormalised to       8.0000

     negative rho (up, down):  1.033E-05 0.000E+00
     Starting wfcs are    8 randomized atomic wfcs

     total cpu time spent up to now is        1.9 secs

     Self-consistent Calculation

     iteration #  1     ecut=    45.00 Ry     beta= 0.70
     Davidson diagonalization with overlap
     ethr =  1.00E-02,  avg # of iterations =  5.4

     negative rho (up, down):  2.568E-05 0.000E+00

     total cpu time spent up to now is        3.5 secs

     total energy              =     -36.85849245 Ry
     estimated scf accuracy    <       0.19737348 Ry

     iteration #  2     ecut=    45.00 Ry     beta= 0.70
     Davidson diagonalization with overlap
     ethr =  2.47E-03,  avg # of iterations =  3.0

     negative rho (up, down):  3.662E-05 0.000E+00

     total cpu time spent up to now is        4.6 secs

     total energy              =     -36.88690858 Ry
     estimated scf accuracy    <       0.00213659 Ry

     iteration #  3     ecut=    45.00 Ry     beta= 0.70
     Davidson diagonalization with overlap
     ethr =  2.67E-05,  avg # of iterations =  9.7

     negative rho (up, down):  4.390E-05 0.000E+00

     total cpu time spent up to now is        6.5 secs

     total energy              =     -36.88714924 Ry
     estimated scf accuracy    <       0.00015859 Ry

     iteration #  4     ecut=    45.00 Ry     beta= 0.70
     Davidson diagonalization with overlap
     ethr =  1.98E-06,  avg # of iterations =  4.6

     negative rho (up, down):  4.483E-05 0.000E+00

     total cpu time spent up to now is        7.7 secs

     total energy              =     -36.88715856 Ry
     estimated scf accuracy    <       0.00000117 Ry

     iteration #  5     ecut=    45.00 Ry     beta= 0.70
     Davidson diagonalization with overlap
     ethr =  1.46E-08,  avg # of iterations =  3.1

     negative rho (up, down):  4.499E-05 0.000E+00

     total cpu time spent up to now is        8.8 secs

     total energy              =     -36.88715932 Ry
     estimated scf accuracy    <       0.00000003 Ry

     iteration #  6     ecut=    45.00 Ry     beta= 0.70
     Davidson diagonalization with overlap
     ethr =  3.21E-10,  avg # of iterations =  2.2

     negative rho (up, down):  4.505E-05 0.000E+00

     total cpu time spent up to now is        9.9 secs

     End of self-consistent calculation

          k = 0.0000 0.0000 0.0000 (  2603 PWs)   bands (ev):

   -21.2252  -9.3134  -4.7177  -4.7177   1.5498   2.4487   2.8673   4.8427

          k = 0.0000 0.0888 0.0000 (  2629 PWs)   bands (ev):

   -21.0852  -9.1458  -5.2773  -5.0103   1.7404   2.6408   3.0609   5.0333

          k = 0.0000 0.1776 0.0000 (  2639 PWs)   bands (ev):

   -20.6664  -8.6469  -6.7166  -5.7173   2.3122   3.2161   3.6418   5.6027

          k = 0.0000 0.2665 0.0000 (  2645 PWs)   bands (ev):

   -19.9729  -8.6097  -7.8300  -6.5400   3.2638   4.1664   4.6095   6.1059

          k = 0.0000 0.3553 0.0000 (  2664 PWs)   bands (ev):

   -19.0131 -10.6463  -7.2709  -6.7270   3.9688   4.5900   5.5427   5.9443

          k = 0.0000 0.4441 0.0000 (  2658 PWs)   bands (ev):

   -17.8040 -12.6416  -7.8006  -5.4251   1.8900   5.8903   6.3343   7.2378

          k = 0.0000 0.5329 0.0000 (  2676 PWs)   bands (ev):

   -16.4207 -14.4359  -8.0762  -4.2516   0.2906   5.7777   8.3627   9.2917

          k = 0.0769 0.1332 0.0000 (  2633 PWs)   bands (ev):

   -20.8058  -8.8125  -6.1921  -5.5959   2.1217   3.0246   3.4483   5.4136

          k = 0.0769 0.2221 0.0000 (  2654 PWs)   bands (ev):

   -20.2497  -8.1539  -7.7278  -6.4942   2.8840   3.7895   4.2231   6.1673

          k = 0.0769 0.3109 0.0000 (  2654 PWs)   bands (ev):

   -19.4229  -9.6210  -7.3444  -7.1905   4.0246   4.7923   5.0694   5.3840

          k = 0.0769 0.3997 0.0000 (  2667 PWs)   bands (ev):

   -18.3376 -11.6056  -8.0069  -5.9726   2.8349   5.5343   6.4685   6.6507

          k = 0.0769 0.4885 0.0000 (  2684 PWs)   bands (ev):

   -17.0245 -13.5037  -8.4224  -4.6576   0.9408   6.4421   7.4370   8.3373

          k = 0.0769 0.5774 0.0000 (  2677 PWs)   bands (ev):

   -15.8781 -14.8518  -8.5636  -3.9056  -0.0153   6.3773   9.5644   9.7193

          k = 0.1538 0.2665 0.0000 (  2655 PWs)   bands (ev):

   -19.5603  -8.9815  -7.7050  -7.3467   3.8360   4.7411   5.1920   5.3098

          k = 0.1538 0.3553 0.0000 (  2674 PWs)   bands (ev):

   -18.6077 -10.5912  -8.7206  -6.2557   3.4936   5.1631   6.0620   6.5464

          k = 0.1538 0.4441 0.0000 (  2684 PWs)   bands (ev):

   -17.4112 -12.3991  -9.3557  -4.9593   1.6283   6.8533   7.7196   8.1297

          k = 0.1538 0.5329 0.0000 (  2681 PWs)   bands (ev):

   -16.0500 -14.1092  -9.6636  -3.7566   0.1111   7.9970   8.9021   9.5376

          k = 0.2308 0.3997 0.0000 (  2683 PWs)   bands (ev):

   -17.5426 -11.6352 -10.1002  -5.0684   1.9391   6.6688   7.4969   8.0923

          k = 0.2308 0.4885 0.0000 (  2705 PWs)   bands (ev):

   -16.2654 -13.0320 -10.8845  -3.7439   0.3800   8.5133   8.9554   9.9909

          k = 0.2308 0.5774 0.0000 (  2703 PWs)   bands (ev):

   -15.1601 -14.2320 -11.1040  -2.8879  -0.5584   9.4081  10.0227  10.4802

          k = 0.3077 0.5329 0.0000 (  2713 PWs)   bands (ev):

   -14.9927 -13.7340 -12.0169  -2.4410  -0.8980   9.0386  10.3839  11.3892

     the Fermi energy is    -1.6053 ev

!    total energy              =     -36.88715932 Ry
     total all-electron energy =      -152.415355 Ry
     estimated scf accuracy    <          3.4E-10 Ry
     smearing contrib. (-TS)   =      -0.00000000 Ry
     internal energy E=F+TS    =     -36.88715932 Ry

     The total energy is F=E-TS. E is the sum of the following terms:
     one-electron contribution =    -154.20884173 Ry
     hartree contribution      =      78.73885116 Ry
     xc contribution           =      -9.27924896 Ry
     ewald contribution        =      60.19597803 Ry
     one-center paw contrib.   =     -12.33389782 Ry

     convergence has been achieved in   6 iterations

     Writing all to output data dir ./tmp/graphene.save/ :
     XML data file, charge density, pseudopotentials, collected wavefunctions

     init_run     :      1.99s CPU      1.78s WALL (       1 calls)
     electrons    :     13.94s CPU      8.01s WALL (       1 calls)

     Called by init_run:
     wfcinit      :      0.78s CPU      0.52s WALL (       1 calls)
     potinit      :      0.56s CPU      0.58s WALL (       1 calls)
     hinit0       :      0.58s CPU      0.59s WALL (       1 calls)

     Called by electrons:
     c_bands      :     10.40s CPU      5.52s WALL (       6 calls)
     sum_band     :      2.03s CPU      1.11s WALL (       6 calls)
     v_of_rho     :      0.81s CPU      0.66s WALL (       7 calls)
     newd         :      0.27s CPU      0.37s WALL (       7 calls)
     PAW_pot      :      0.46s CPU      0.46s WALL (       7 calls)
     mix_rho      :      0.10s CPU      0.05s WALL (       6 calls)

     Called by c_bands:
     init_us_2    :      0.32s CPU      0.16s WALL (     273 calls)
     cegterg      :      9.97s CPU      5.31s WALL (     126 calls)

     Called by *egterg:
     cdiaghg      :      0.23s CPU      0.09s WALL (     715 calls)
     h_psi        :      9.37s CPU      5.22s WALL (     736 calls)
     s_psi        :      0.10s CPU      0.06s WALL (     736 calls)
     g_psi        :      0.09s CPU      0.03s WALL (     589 calls)

     Called by h_psi:
     h_psi:calbec :      0.20s CPU      0.10s WALL (     736 calls)
     vloc_psi     :      8.88s CPU      4.94s WALL (     736 calls)
     add_vuspsi   :      0.23s CPU      0.16s WALL (     736 calls)

     General routines
     calbec       :      0.24s CPU      0.12s WALL (     862 calls)
     fft          :      0.77s CPU      0.67s WALL (      89 calls)
     ffts         :      0.40s CPU      0.40s WALL (      13 calls)
     fftw         :      7.36s CPU      4.28s WALL (    7596 calls)
     interpolate  :      0.42s CPU      0.42s WALL (       7 calls)


     PWSCF        :     16.16s CPU      9.94s WALL


   This run was terminated on:  16:51:33   9Sep2025            

=------------------------------------------------------------------------------=
   JOB DONE.
=------------------------------------------------------------------------------=
