
     Program PWSCF v.7.4.1 starts on  9Sep2025 at 17:12:17 

     This program is part of the open-source Quantum ESPRESSO suite
     for quantum simulation of materials; please cite
         "P. Giannozzi et al., J. Phys.:Condens. Matter 21 395502 (2009);
         "P. Giannozzi et al., J. Phys.:Condens. Matter 29 465901 (2017);
         "P. Giannozzi et al., J. Chem. Phys. 152 154105 (2020);
          URL http://www.quantum-espresso.org", 
     in publications or presentations arising from this work. More details at
     http://www.quantum-espresso.org/quote

     Serial version
     21945 MiB available memory on the printing compute node when the environment starts

     Waiting for input...
     Reading input from standard input

     Current dimensions of program PWSCF are:
     Max number of different atomic species (ntypx) = 10
     Max number of k-points (npk) =  40000
     Max angular momentum in pseudopotentials (lmaxx) =  4
     file C.pbe-n-kjpaw_psl.1.0.0.UPF: wavefunction(s)  2S 2P renormalized


     G-vector sticks info
     --------------------
     sticks:   dense  smooth     PW     G-vecs:    dense   smooth      PW
     Sum         661     253     85                82267    20639    3847

     Using Slab Decomposition



     bravais-lattice index     =            4
     lattice parameter (alat)  =       4.6140  a.u.
     unit-cell volume          =     510.4047 (a.u.)^3
     number of atoms/cell      =            2
     number of atomic types    =            1
     number of electrons       =         8.00
     number of Kohn-Sham states=            8
     kinetic-energy cutoff     =      45.0000  Ry
     charge density cutoff     =     450.0000  Ry
     scf convergence threshold =      1.0E-08
     mixing beta               =       0.7000
     number of iterations used =            8  plain     mixing
     Exchange-correlation= SLA  PW   PBX  PBC
                           (   1   4   3   4   0   0   0)

     celldm(1)=   4.614000  celldm(2)=   0.000000  celldm(3)=   6.000000
     celldm(4)=   0.000000  celldm(5)=   0.000000  celldm(6)=   0.000000

     crystal axes: (cart. coord. in units of alat)
               a(1) = (   1.000000   0.000000   0.000000 )  
               a(2) = (  -0.500000   0.866025   0.000000 )  
               a(3) = (   0.000000   0.000000   6.000000 )  

     reciprocal axes: (cart. coord. in units 2 pi/alat)
               b(1) = (  1.000000  0.577350 -0.000000 )  
               b(2) = (  0.000000  1.154701  0.000000 )  
               b(3) = (  0.000000 -0.000000  0.166667 )  


     PseudoPot. # 1 for C  read from file:
     ../../../../../pseudos/C.pbe-n-kjpaw_psl.1.0.0.UPF
     MD5 check sum: 5d2aebdfa2cae82b50a7e79e9516da0f
     Pseudo is Projector augmented-wave + core cor, Zval =  4.0
     Generated using "atomic" code by A. Dal Corso  v.5.1
     Shape of augmentation charge: PSQ
     Using radial grid of 1073 points,  4 beta functions with: 
                l(1) =   0
                l(2) =   0
                l(3) =   1
                l(4) =   1
     Q(r) pseudized with 0 coefficients 


     atomic species   valence    mass     pseudopotential
     C                 4.00    12.01070     C ( 1.00)

     24 Sym. Ops., with inversion, found (12 have fractional translation)



   Cartesian axes

     site n.     atom                  positions (alat units)
         1        C      tau(   1) = (   0.0000000   0.0000000   0.0000000  )
         2        C      tau(   2) = (   0.0000000   0.5773503   0.0000000  )

     number of k points=     7  Gaussian smearing, width (Ry)=  0.0100
                       cart. coord. in units 2pi/alat
        k(    1) = (   0.0000000   0.0000000   0.0000000), wk =   0.0555556
        k(    2) = (   0.0000000   0.1924501   0.0000000), wk =   0.3333333
        k(    3) = (   0.0000000   0.3849002   0.0000000), wk =   0.3333333
        k(    4) = (   0.0000000  -0.5773503   0.0000000), wk =   0.1666667
        k(    5) = (   0.1666667   0.2886751   0.0000000), wk =   0.3333333
        k(    6) = (   0.1666667   0.4811252   0.0000000), wk =   0.6666667
        k(    7) = (   0.3333333   0.5773503   0.0000000), wk =   0.1111111

     Dense  grid:    82267 G-vectors     FFT dimensions: (  36,  36, 192)

     Smooth grid:    20639 G-vectors     FFT dimensions: (  24,  24, 120)

     Estimated max dynamical RAM per process >     110.97 MB

     Initial potential from superposition of free atoms

     starting charge       7.9999, renormalised to       8.0000

     negative rho (up, down):  9.733E-06 0.000E+00
     Starting wfcs are    8 randomized atomic wfcs

     total cpu time spent up to now is        1.7 secs

     Self-consistent Calculation

     iteration #  1     ecut=    45.00 Ry     beta= 0.70
     Davidson diagonalization with overlap
     ethr =  1.00E-02,  avg # of iterations =  5.1

     negative rho (up, down):  2.411E-05 0.000E+00

     total cpu time spent up to now is        2.5 secs

     total energy              =     -36.85081069 Ry
     estimated scf accuracy    <       0.21246139 Ry

     iteration #  2     ecut=    45.00 Ry     beta= 0.70
     Davidson diagonalization with overlap
     ethr =  2.66E-03,  avg # of iterations =  3.3

     negative rho (up, down):  3.425E-05 0.000E+00

     total cpu time spent up to now is        3.1 secs

     total energy              =     -36.88198994 Ry
     estimated scf accuracy    <       0.00225045 Ry

     iteration #  3     ecut=    45.00 Ry     beta= 0.70
     Davidson diagonalization with overlap
     ethr =  2.81E-05,  avg # of iterations =  6.7

     negative rho (up, down):  4.273E-05 0.000E+00

     total cpu time spent up to now is        3.9 secs

     total energy              =     -36.88224301 Ry
     estimated scf accuracy    <       0.00016239 Ry

     iteration #  4     ecut=    45.00 Ry     beta= 0.70
     Davidson diagonalization with overlap
     ethr =  2.03E-06,  avg # of iterations =  4.3

     negative rho (up, down):  4.368E-05 0.000E+00

     total cpu time spent up to now is        4.5 secs

     total energy              =     -36.88225408 Ry
     estimated scf accuracy    <       0.00000092 Ry

     iteration #  5     ecut=    45.00 Ry     beta= 0.70
     Davidson diagonalization with overlap
     ethr =  1.15E-08,  avg # of iterations =  2.6

     negative rho (up, down):  4.386E-05 0.000E+00

     total cpu time spent up to now is        5.1 secs

     total energy              =     -36.88225460 Ry
     estimated scf accuracy    <       0.00000002 Ry

     iteration #  6     ecut=    45.00 Ry     beta= 0.70
     Davidson diagonalization with overlap
     ethr =  2.92E-10,  avg # of iterations =  2.3

     negative rho (up, down):  4.392E-05 0.000E+00

     total cpu time spent up to now is        5.6 secs

     End of self-consistent calculation

          k = 0.0000 0.0000 0.0000 (  2579 PWs)   bands (ev):

   -21.3070  -9.3632  -4.5782  -4.5782   1.5927   2.5020   2.9278   4.9441

          k = 0.0000 0.1925 0.0000 (  2579 PWs)   bands (ev):

   -20.6414  -8.5654  -6.8975  -5.7443   2.5028   3.4184   3.8525   5.8513

          k = 0.0000 0.3849 0.0000 (  2604 PWs)   bands (ev):

   -18.6771 -11.2706  -7.4029  -6.2909   3.4923   5.2175   6.1836   6.4390

          k = 0.0000-0.5774 0.0000 (  2576 PWs)   bands (ev):

   -15.9298 -14.9805  -8.0550  -3.9579   0.1566   6.1456   9.6267   9.7710

          k = 0.1667 0.2887 0.0000 (  2601 PWs)   bands (ev):

   -19.3264  -9.3577  -8.0530  -7.0163   4.3214   5.0193   5.2366   5.7029

          k = 0.1667 0.4811 0.0000 (  2623 PWs)   bands (ev):

   -16.7930 -13.0695  -9.7127  -4.2654   1.0408   7.9072   8.7180   8.8208

          k = 0.3333 0.5774 0.0000 (  2631 PWs)   bands (ev):

   -14.2354 -14.2354 -12.3299  -1.5364  -1.5364   9.1222  11.5400  11.5402

     the Fermi energy is    -1.5364 ev

!    total energy              =     -36.88225461 Ry
     total all-electron energy =      -152.410450 Ry
     estimated scf accuracy    <          3.6E-10 Ry
     smearing contrib. (-TS)   =      -0.00062688 Ry
     internal energy E=F+TS    =     -36.88162773 Ry

     The total energy is F=E-TS. E is the sum of the following terms:
     one-electron contribution =    -155.23223606 Ry
     hartree contribution      =      79.28707091 Ry
     xc contribution           =      -9.31870191 Ry
     ewald contribution        =      60.71783306 Ry
     one-center paw contrib.   =     -12.33559372 Ry

     convergence has been achieved in   6 iterations

     Writing all to output data dir ./tmp/graphene.save/ :
     XML data file, charge density, pseudopotentials, collected wavefunctions

     init_run     :      1.65s CPU      1.60s WALL (       1 calls)
     electrons    :      6.16s CPU      3.87s WALL (       1 calls)

     Called by init_run:
     wfcinit      :      0.45s CPU      0.35s WALL (       1 calls)
     potinit      :      0.55s CPU      0.58s WALL (       1 calls)
     hinit0       :      0.58s CPU      0.59s WALL (       1 calls)

     Called by electrons:
     c_bands      :      3.30s CPU      1.80s WALL (       6 calls)
     sum_band     :      1.35s CPU      0.69s WALL (       6 calls)
     v_of_rho     :      0.80s CPU      0.65s WALL (       7 calls)
     newd         :      0.27s CPU      0.36s WALL (       7 calls)
     PAW_pot      :      0.46s CPU      0.47s WALL (       7 calls)
     mix_rho      :      0.10s CPU      0.06s WALL (       6 calls)

     Called by c_bands:
     init_us_2    :      0.08s CPU      0.05s WALL (      91 calls)
     cegterg      :      3.19s CPU      1.73s WALL (      42 calls)

     Called by *egterg:
     cdiaghg      :      0.07s CPU      0.03s WALL (     212 calls)
     h_psi        :      3.18s CPU      1.86s WALL (     219 calls)
     s_psi        :      0.03s CPU      0.03s WALL (     219 calls)
     g_psi        :      0.03s CPU      0.01s WALL (     170 calls)

     Called by h_psi:
     h_psi:calbec :      0.06s CPU      0.03s WALL (     219 calls)
     vloc_psi     :      3.01s CPU      1.75s WALL (     219 calls)
     add_vuspsi   :      0.08s CPU      0.07s WALL (     219 calls)

     General routines
     calbec       :      0.08s CPU      0.04s WALL (     261 calls)
     fft          :      0.77s CPU      0.67s WALL (      89 calls)
     ffts         :      0.41s CPU      0.41s WALL (      13 calls)
     fftw         :      2.50s CPU      1.53s WALL (    2464 calls)
     interpolate  :      0.42s CPU      0.42s WALL (       7 calls)


     PWSCF        :      8.01s CPU      5.62s WALL


   This run was terminated on:  17:12:22   9Sep2025            

=------------------------------------------------------------------------------=
   JOB DONE.
=------------------------------------------------------------------------------=
