
     Program PWSCF v.7.4.1 starts on  9Sep2025 at 16:51: 9 

     This program is part of the open-source Quantum ESPRESSO suite
     for quantum simulation of materials; please cite
         "P. Giannozzi et al., J. Phys.:Condens. Matter 21 395502 (2009);
         "P. Giannozzi et al., J. Phys.:Condens. Matter 29 465901 (2017);
         "P. Giannozzi et al., J. Chem. Phys. 152 154105 (2020);
          URL http://www.quantum-espresso.org", 
     in publications or presentations arising from this work. More details at
     http://www.quantum-espresso.org/quote

     Serial version
     22242 MiB available memory on the printing compute node when the environment starts

     Waiting for input...
     Reading input from standard input

     Current dimensions of program PWSCF are:
     Max number of different atomic species (ntypx) = 10
     Max number of k-points (npk) =  40000
     Max angular momentum in pseudopotentials (lmaxx) =  4
     file C.pbe-n-kjpaw_psl.1.0.0.UPF: wavefunction(s)  2S 2P renormalized


     G-vector sticks info
     --------------------
     sticks:   dense  smooth     PW     G-vecs:    dense   smooth      PW
     Sum         673     265     85                84597    21311    3919

     Using Slab Decomposition



     bravais-lattice index     =            4
     lattice parameter (alat)  =       4.6540  a.u.
     unit-cell volume          =     523.7946 (a.u.)^3
     number of atoms/cell      =            2
     number of atomic types    =            1
     number of electrons       =         8.00
     number of Kohn-Sham states=            8
     kinetic-energy cutoff     =      45.0000  Ry
     charge density cutoff     =     450.0000  Ry
     scf convergence threshold =      1.0E-08
     mixing beta               =       0.7000
     number of iterations used =            8  plain     mixing
     Exchange-correlation= SLA  PW   PBX  PBC
                           (   1   4   3   4   0   0   0)

     celldm(1)=   4.654000  celldm(2)=   0.000000  celldm(3)=   6.000000
     celldm(4)=   0.000000  celldm(5)=   0.000000  celldm(6)=   0.000000

     crystal axes: (cart. coord. in units of alat)
               a(1) = (   1.000000   0.000000   0.000000 )  
               a(2) = (  -0.500000   0.866025   0.000000 )  
               a(3) = (   0.000000   0.000000   6.000000 )  

     reciprocal axes: (cart. coord. in units 2 pi/alat)
               b(1) = (  1.000000  0.577350 -0.000000 )  
               b(2) = (  0.000000  1.154701  0.000000 )  
               b(3) = (  0.000000 -0.000000  0.166667 )  


     PseudoPot. # 1 for C  read from file:
     ../../../../../pseudos/C.pbe-n-kjpaw_psl.1.0.0.UPF
     MD5 check sum: 5d2aebdfa2cae82b50a7e79e9516da0f
     Pseudo is Projector augmented-wave + core cor, Zval =  4.0
     Generated using "atomic" code by A. Dal Corso  v.5.1
     Shape of augmentation charge: PSQ
     Using radial grid of 1073 points,  4 beta functions with: 
                l(1) =   0
                l(2) =   0
                l(3) =   1
                l(4) =   1
     Q(r) pseudized with 0 coefficients 


     atomic species   valence    mass     pseudopotential
     C                 4.00    12.01070     C ( 1.00)

     24 Sym. Ops., with inversion, found (12 have fractional translation)



   Cartesian axes

     site n.     atom                  positions (alat units)
         1        C      tau(   1) = (   0.0000000   0.0000000   0.0000000  )
         2        C      tau(   2) = (   0.0000000   0.5773503   0.0000000  )

     number of k points=    19  Gaussian smearing, width (Ry)=  0.0100
                       cart. coord. in units 2pi/alat
        k(    1) = (   0.0000000   0.0000000   0.0000000), wk =   0.0138889
        k(    2) = (   0.0000000   0.0962250   0.0000000), wk =   0.0833333
        k(    3) = (   0.0000000   0.1924501   0.0000000), wk =   0.0833333
        k(    4) = (   0.0000000   0.2886751   0.0000000), wk =   0.0833333
        k(    5) = (   0.0000000   0.3849002   0.0000000), wk =   0.0833333
        k(    6) = (   0.0000000   0.4811252   0.0000000), wk =   0.0833333
        k(    7) = (   0.0000000  -0.5773503   0.0000000), wk =   0.0416667
        k(    8) = (   0.0833333   0.1443376   0.0000000), wk =   0.0833333
        k(    9) = (   0.0833333   0.2405626   0.0000000), wk =   0.1666667
        k(   10) = (   0.0833333   0.3367877   0.0000000), wk =   0.1666667
        k(   11) = (   0.0833333   0.4330127   0.0000000), wk =   0.1666667
        k(   12) = (   0.0833333   0.5292377   0.0000000), wk =   0.1666667
        k(   13) = (   0.1666667   0.2886751   0.0000000), wk =   0.0833333
        k(   14) = (   0.1666667   0.3849002   0.0000000), wk =   0.1666667
        k(   15) = (   0.1666667   0.4811252   0.0000000), wk =   0.1666667
        k(   16) = (   0.1666667   0.5773503   0.0000000), wk =   0.0833333
        k(   17) = (   0.2500000   0.4330127   0.0000000), wk =   0.0833333
        k(   18) = (   0.2500000   0.5292377   0.0000000), wk =   0.1666667
        k(   19) = (   0.3333333   0.5773503   0.0000000), wk =   0.0277778

     Dense  grid:    84597 G-vectors     FFT dimensions: (  36,  36, 192)

     Smooth grid:    21311 G-vectors     FFT dimensions: (  24,  24, 120)

     Estimated max dynamical RAM per process >     117.52 MB

     Initial potential from superposition of free atoms

     starting charge       7.9999, renormalised to       8.0000

     negative rho (up, down):  1.033E-05 0.000E+00
     Starting wfcs are    8 randomized atomic wfcs

     total cpu time spent up to now is        1.9 secs

     Self-consistent Calculation

     iteration #  1     ecut=    45.00 Ry     beta= 0.70
     Davidson diagonalization with overlap
     ethr =  1.00E-02,  avg # of iterations =  5.4

     negative rho (up, down):  2.509E-05 0.000E+00

     total cpu time spent up to now is        3.3 secs

     total energy              =     -36.85794711 Ry
     estimated scf accuracy    <       0.19741414 Ry

     iteration #  2     ecut=    45.00 Ry     beta= 0.70
     Davidson diagonalization with overlap
     ethr =  2.47E-03,  avg # of iterations =  3.6

     negative rho (up, down):  3.617E-05 0.000E+00

     total cpu time spent up to now is        4.3 secs

     total energy              =     -36.88637568 Ry
     estimated scf accuracy    <       0.00214193 Ry

     iteration #  3     ecut=    45.00 Ry     beta= 0.70
     Davidson diagonalization with overlap
     ethr =  2.68E-05,  avg # of iterations =  9.1

     negative rho (up, down):  4.386E-05 0.000E+00

     total cpu time spent up to now is        5.9 secs

     total energy              =     -36.88661623 Ry
     estimated scf accuracy    <       0.00015750 Ry

     iteration #  4     ecut=    45.00 Ry     beta= 0.70
     Davidson diagonalization with overlap
     ethr =  1.97E-06,  avg # of iterations =  4.1

     negative rho (up, down):  4.486E-05 0.000E+00

     total cpu time spent up to now is        7.2 secs

     total energy              =     -36.88662544 Ry
     estimated scf accuracy    <       0.00000107 Ry

     iteration #  5     ecut=    45.00 Ry     beta= 0.70
     Davidson diagonalization with overlap
     ethr =  1.34E-08,  avg # of iterations =  3.2

     negative rho (up, down):  4.499E-05 0.000E+00

     total cpu time spent up to now is        8.2 secs

     total energy              =     -36.88662622 Ry
     estimated scf accuracy    <       0.00000003 Ry

     iteration #  6     ecut=    45.00 Ry     beta= 0.70
     Davidson diagonalization with overlap
     ethr =  3.22E-10,  avg # of iterations =  2.2

     negative rho (up, down):  4.505E-05 0.000E+00

     total cpu time spent up to now is        9.2 secs

     End of self-consistent calculation

          k = 0.0000 0.0000 0.0000 (  2603 PWs)   bands (ev):

   -21.2248  -9.3131  -4.7171  -4.7171   1.5498   2.4487   2.8672   4.8427

          k = 0.0000 0.0962 0.0000 (  2629 PWs)   bands (ev):

   -21.0605  -9.1165  -5.3691  -5.0571   1.7735   2.6741   3.0945   5.0664

          k = 0.0000 0.1925 0.0000 (  2639 PWs)   bands (ev):

   -20.5693  -8.5320  -7.0105  -5.8530   2.4445   3.3489   3.7763   5.7338

          k = 0.0000 0.2887 0.0000 (  2647 PWs)   bands (ev):

   -19.7570  -9.1138  -7.5788  -6.7364   3.5607   4.4542   4.9115   5.6193

          k = 0.0000 0.3849 0.0000 (  2674 PWs)   bands (ev):

   -18.6359 -11.3224  -7.4728  -6.3072   3.2615   5.1110   6.0629   6.0887

          k = 0.0000 0.4811 0.0000 (  2662 PWs)   bands (ev):

   -17.2368 -13.4277  -7.9476  -4.8805   1.1197   5.8392   7.1270   8.0538

          k = 0.0000-0.5774 0.0000 (  2688 PWs)   bands (ev):

   -15.9676 -14.9402  -8.1106  -4.0334   0.0183   5.7607   9.4406   9.5873

          k = 0.0833 0.1443 0.0000 (  2625 PWs)   bands (ev):

   -20.7327  -8.7258  -6.4049  -5.7374   2.2211   3.1244   3.5492   5.5124

          k = 0.0833 0.2406 0.0000 (  2660 PWs)   bands (ev):

   -20.0810  -8.1186  -7.9558  -6.7394   3.1155   4.0209   4.4585   6.3579

          k = 0.0833 0.3368 0.0000 (  2665 PWs)   bands (ev):

   -19.1142 -10.1966  -7.6289  -6.8369   4.2766   4.4526   5.3879   5.8198

          k = 0.0833 0.4330 0.0000 (  2688 PWs)   bands (ev):

   -17.8511 -12.3247  -8.2660  -5.4536   2.0700   6.2072   6.6932   7.1512

          k = 0.0833 0.5292 0.0000 (  2681 PWs)   bands (ev):

   -16.3673 -14.2716  -8.5956  -4.1405   0.2957   6.5001   8.4297   9.3090

          k = 0.1667 0.2887 0.0000 (  2649 PWs)   bands (ev):

   -19.2747  -9.4510  -8.1065  -7.0162   4.2318   4.7359   5.1348   5.5954

          k = 0.1667 0.3849 0.0000 (  2675 PWs)   bands (ev):

   -18.1645 -11.1825  -9.1659  -5.7597   2.7820   5.7858   6.6710   7.1838

          k = 0.1667 0.4811 0.0000 (  2676 PWs)   bands (ev):

   -16.7853 -13.0985  -9.7431  -4.3290   0.8637   7.7515   8.4153   8.5495

          k = 0.1667 0.5774 0.0000 (  2673 PWs)   bands (ev):

   -15.5458 -14.5393  -9.9283  -3.4335  -0.2079   8.3111  10.0066  10.1978

          k = 0.2500 0.4330 0.0000 (  2695 PWs)   bands (ev):

   -16.9335 -12.2185 -10.6548  -4.4133   1.1629   7.5408   8.2582   8.9945

          k = 0.2500 0.5292 0.0000 (  2707 PWs)   bands (ev):

   -15.5073 -13.6443 -11.3638  -3.0235  -0.3619   9.2193   9.6449  10.5776

          k = 0.3333 0.5774 0.0000 (  2721 PWs)   bands (ev):

   -14.2863 -14.2863 -12.2651  -1.6636  -1.6636   8.9590  11.2407  11.2408

     the Fermi energy is    -1.6636 ev

!    total energy              =     -36.88662622 Ry
     total all-electron energy =      -152.414822 Ry
     estimated scf accuracy    <          4.7E-10 Ry
     smearing contrib. (-TS)   =      -0.00015672 Ry
     internal energy E=F+TS    =     -36.88646950 Ry

     The total energy is F=E-TS. E is the sum of the following terms:
     one-electron contribution =    -154.20835442 Ry
     hartree contribution      =      78.73909831 Ry
     xc contribution           =      -9.27929249 Ry
     ewald contribution        =      60.19597803 Ry
     one-center paw contrib.   =     -12.33389893 Ry

     convergence has been achieved in   6 iterations

     Writing all to output data dir ./tmp/graphene.save/ :
     XML data file, charge density, pseudopotentials, collected wavefunctions

     init_run     :      1.99s CPU      1.77s WALL (       1 calls)
     electrons    :     12.35s CPU      7.30s WALL (       1 calls)

     Called by init_run:
     wfcinit      :      0.79s CPU      0.52s WALL (       1 calls)
     potinit      :      0.56s CPU      0.57s WALL (       1 calls)
     hinit0       :      0.57s CPU      0.58s WALL (       1 calls)

     Called by electrons:
     c_bands      :      8.97s CPU      4.85s WALL (       6 calls)
     sum_band     :      1.90s CPU      1.06s WALL (       6 calls)
     v_of_rho     :      0.79s CPU      0.67s WALL (       7 calls)
     newd         :      0.26s CPU      0.37s WALL (       7 calls)
     PAW_pot      :      0.46s CPU      0.46s WALL (       7 calls)
     mix_rho      :      0.09s CPU      0.05s WALL (       6 calls)

     Called by c_bands:
     init_us_2    :      0.26s CPU      0.14s WALL (     247 calls)
     cegterg      :      8.60s CPU      4.66s WALL (     114 calls)

     Called by *egterg:
     cdiaghg      :      0.19s CPU      0.08s WALL (     636 calls)
     h_psi        :      8.18s CPU      4.65s WALL (     655 calls)
     s_psi        :      0.10s CPU      0.05s WALL (     655 calls)
     g_psi        :      0.08s CPU      0.03s WALL (     522 calls)

     Called by h_psi:
     h_psi:calbec :      0.19s CPU      0.10s WALL (     655 calls)
     vloc_psi     :      7.64s CPU      4.30s WALL (     655 calls)
     add_vuspsi   :      0.29s CPU      0.23s WALL (     655 calls)

     General routines
     calbec       :      0.22s CPU      0.12s WALL (     769 calls)
     fft          :      0.76s CPU      0.67s WALL (      89 calls)
     ffts         :      0.40s CPU      0.40s WALL (      13 calls)
     fftw         :      6.30s CPU      3.73s WALL (    6760 calls)
     interpolate  :      0.42s CPU      0.42s WALL (       7 calls)


     PWSCF        :     14.56s CPU      9.21s WALL


   This run was terminated on:  16:51:18   9Sep2025            

=------------------------------------------------------------------------------=
   JOB DONE.
=------------------------------------------------------------------------------=
