
     Program PWSCF v.7.4.1 starts on  9Sep2025 at  8:34:41 

     This program is part of the open-source Quantum ESPRESSO suite
     for quantum simulation of materials; please cite
         "P. Giannozzi et al., J. Phys.:Condens. Matter 21 395502 (2009);
         "P. Giannozzi et al., J. Phys.:Condens. Matter 29 465901 (2017);
         "P. Giannozzi et al., J. Chem. Phys. 152 154105 (2020);
          URL http://www.quantum-espresso.org", 
     in publications or presentations arising from this work. More details at
     http://www.quantum-espresso.org/quote

     Serial version
     8358 MiB available memory on the printing compute node when the environment starts

     Waiting for input...
     Reading input from standard input

     Current dimensions of program PWSCF are:
     Max number of different atomic species (ntypx) = 10
     Max number of k-points (npk) =  40000
     Max angular momentum in pseudopotentials (lmaxx) =  4
     file C.pbe-n-kjpaw_psl.1.0.0.UPF: wavefunction(s)  2S 2P renormalized


     G-vector sticks info
     --------------------
     sticks:   dense  smooth     PW     G-vecs:    dense   smooth      PW
     Sum         379     151     55                35895     9095    1919

     Using Slab Decomposition



     bravais-lattice index     =            4
     lattice parameter (alat)  =       4.6940  a.u.
     unit-cell volume          =     537.4167 (a.u.)^3
     number of atoms/cell      =            2
     number of atomic types    =            1
     number of electrons       =         8.00
     number of Kohn-Sham states=            8
     kinetic-energy cutoff     =      25.0000  Ry
     charge density cutoff     =     250.0000  Ry
     scf convergence threshold =      1.0E-08
     mixing beta               =       0.7000
     number of iterations used =            8  plain     mixing
     Exchange-correlation= SLA  PW   PBX  PBC
                           (   1   4   3   4   0   0   0)

     celldm(1)=   4.694000  celldm(2)=   0.000000  celldm(3)=   6.000000
     celldm(4)=   0.000000  celldm(5)=   0.000000  celldm(6)=   0.000000

     crystal axes: (cart. coord. in units of alat)
               a(1) = (   1.000000   0.000000   0.000000 )  
               a(2) = (  -0.500000   0.866025   0.000000 )  
               a(3) = (   0.000000   0.000000   6.000000 )  

     reciprocal axes: (cart. coord. in units 2 pi/alat)
               b(1) = (  1.000000  0.577350 -0.000000 )  
               b(2) = (  0.000000  1.154701  0.000000 )  
               b(3) = (  0.000000 -0.000000  0.166667 )  


     PseudoPot. # 1 for C  read from file:
     ../../../../../pseudos/C.pbe-n-kjpaw_psl.1.0.0.UPF
     MD5 check sum: 5d2aebdfa2cae82b50a7e79e9516da0f
     Pseudo is Projector augmented-wave + core cor, Zval =  4.0
     Generated using "atomic" code by A. Dal Corso  v.5.1
     Shape of augmentation charge: PSQ
     Using radial grid of 1073 points,  4 beta functions with: 
                l(1) =   0
                l(2) =   0
                l(3) =   1
                l(4) =   1
     Q(r) pseudized with 0 coefficients 


     atomic species   valence    mass     pseudopotential
     C                 4.00    12.01070     C ( 1.00)

     24 Sym. Ops., with inversion, found (12 have fractional translation)



   Cartesian axes

     site n.     atom                  positions (alat units)
         1        C      tau(   1) = (   0.0000000   0.0000000   0.0000000  )
         2        C      tau(   2) = (   0.0000000   0.5773503   0.0000000  )

     number of k points=    12  Gaussian smearing, width (Ry)=  0.0100
                       cart. coord. in units 2pi/alat
        k(    1) = (   0.0000000   0.0000000   0.0000000), wk =   0.0246914
        k(    2) = (   0.0000000   0.1283001   0.0000000), wk =   0.1481481
        k(    3) = (   0.0000000   0.2566001   0.0000000), wk =   0.1481481
        k(    4) = (   0.0000000   0.3849002   0.0000000), wk =   0.1481481
        k(    5) = (   0.0000000   0.5132002   0.0000000), wk =   0.1481481
        k(    6) = (   0.1111111   0.1924501   0.0000000), wk =   0.1481481
        k(    7) = (   0.1111111   0.3207501   0.0000000), wk =   0.2962963
        k(    8) = (   0.1111111   0.4490502   0.0000000), wk =   0.2962963
        k(    9) = (   0.1111111   0.5773503   0.0000000), wk =   0.1481481
        k(   10) = (   0.2222222   0.3849002   0.0000000), wk =   0.1481481
        k(   11) = (   0.2222222   0.5132002   0.0000000), wk =   0.2962963
        k(   12) = (   0.3333333   0.5773503   0.0000000), wk =   0.0493827

     Dense  grid:    35895 G-vectors     FFT dimensions: (  24,  24, 144)

     Smooth grid:     9095 G-vectors     FFT dimensions: (  15,  15,  90)

     Estimated max dynamical RAM per process >      47.50 MB

     Check: negative core charge=   -0.000010

     Initial potential from superposition of free atoms

     starting charge       7.9999, renormalised to       8.0000

     negative rho (up, down):  2.687E-04 0.000E+00
     Starting wfcs are    8 randomized atomic wfcs

     total cpu time spent up to now is        1.1 secs

     Self-consistent Calculation

     iteration #  1     ecut=    25.00 Ry     beta= 0.70
     Davidson diagonalization with overlap
     ethr =  1.00E-02,  avg # of iterations =  5.4

     negative rho (up, down):  4.104E-04 0.000E+00

     total cpu time spent up to now is        1.5 secs

     total energy              =     -36.81529354 Ry
     estimated scf accuracy    <       0.17617462 Ry

     iteration #  2     ecut=    25.00 Ry     beta= 0.70
     Davidson diagonalization with overlap
     ethr =  2.20E-03,  avg # of iterations =  3.8

     negative rho (up, down):  4.590E-04 0.000E+00

     total cpu time spent up to now is        1.7 secs

     total energy              =     -36.84094574 Ry
     estimated scf accuracy    <       0.00233334 Ry

     iteration #  3     ecut=    25.00 Ry     beta= 0.70
     Davidson diagonalization with overlap
     ethr =  2.92E-05,  avg # of iterations =  8.8

     negative rho (up, down):  4.965E-04 0.000E+00

     total cpu time spent up to now is        2.1 secs

     total energy              =     -36.84111817 Ry
     estimated scf accuracy    <       0.00016259 Ry

     iteration #  4     ecut=    25.00 Ry     beta= 0.70
     Davidson diagonalization with overlap
     ethr =  2.03E-06,  avg # of iterations =  4.1

     negative rho (up, down):  4.880E-04 0.000E+00

     total cpu time spent up to now is        2.5 secs

     total energy              =     -36.84112560 Ry
     estimated scf accuracy    <       0.00000041 Ry

     iteration #  5     ecut=    25.00 Ry     beta= 0.70
     Davidson diagonalization with overlap
     ethr =  5.18E-09,  avg # of iterations =  3.2

     negative rho (up, down):  4.882E-04 0.000E+00

     total cpu time spent up to now is        2.8 secs

     total energy              =     -36.84112610 Ry
     estimated scf accuracy    <       0.00000002 Ry

     iteration #  6     ecut=    25.00 Ry     beta= 0.70
     Davidson diagonalization with overlap
     ethr =  3.08E-10,  avg # of iterations =  2.0

     negative rho (up, down):  4.888E-04 0.000E+00

     total cpu time spent up to now is        3.1 secs

     End of self-consistent calculation

          k = 0.0000 0.0000 0.0000 (  1137 PWs)   bands (ev):

   -21.2340  -9.2489  -4.8259  -4.8259   1.3485   2.1573   2.4006   4.4276

          k = 0.0000 0.1283 0.0000 (  1149 PWs)   bands (ev):

   -20.9449  -8.9127  -5.9487  -5.3981   1.7421   2.5522   2.7968   4.8169

          k = 0.0000 0.2566 0.0000 (  1127 PWs)   bands (ev):

   -20.0820  -8.4899  -7.8965  -6.5271   2.9220   3.7326   3.9848   5.9131

          k = 0.0000 0.3849 0.0000 (  1132 PWs)   bands (ev):

   -18.6709 -11.3990  -7.5262  -6.3033   3.1013   4.8752   5.6781   5.7229

          k = 0.0000 0.5132 0.0000 (  1138 PWs)   bands (ev):

   -16.7967 -14.1126  -8.0809  -4.4920   0.4450   5.3715   7.6083   8.4427

          k = 0.1111 0.1925 0.0000 (  1139 PWs)   bands (ev):

   -20.3690  -8.2365  -7.5069  -6.5197   2.5293   3.3411   3.5893   5.5928

          k = 0.1111 0.3208 0.0000 (  1133 PWs)   bands (ev):

   -19.2316  -9.9435  -7.8852  -6.9222   4.0995   4.3249   4.9286   5.1728

          k = 0.1111 0.4491 0.0000 (  1126 PWs)   bands (ev):

   -17.5730 -12.6788  -8.7472  -5.1217   1.5386   6.4232   6.7531   7.2494

          k = 0.1111 0.5774 0.0000 (  1156 PWs)   bands (ev):

   -15.8918 -14.7651  -9.0529  -3.8185  -0.1619   6.5699   9.4266   9.5688

          k = 0.2222 0.3849 0.0000 (  1112 PWs)   bands (ev):

   -17.8422 -11.4646  -9.8560  -5.3609   2.1496   6.0513   6.8215   7.1496

          k = 0.2222 0.5132 0.0000 (  1140 PWs)   bands (ev):

   -16.0219 -13.5559 -10.8533  -3.5206  -0.0544   8.7178   8.9762   9.4548

          k = 0.3333 0.5774 0.0000 (  1152 PWs)   bands (ev):

   -14.3926 -14.3926 -12.2149  -1.7470  -1.7469   8.7696  10.9523  10.9524

     the Fermi energy is    -1.7470 ev

!    total energy              =     -36.84112610 Ry
     total all-electron energy =      -152.369322 Ry
     estimated scf accuracy    <          1.2E-09 Ry
     smearing contrib. (-TS)   =      -0.00027861 Ry
     internal energy E=F+TS    =     -36.84084749 Ry

     The total energy is F=E-TS. E is the sum of the following terms:
     one-electron contribution =    -153.10030904 Ry
     hartree contribution      =      78.14197163 Ry
     xc contribution           =      -9.23018147 Ry
     ewald contribution        =      59.68301699 Ry
     one-center paw contrib.   =     -12.33534560 Ry

     convergence has been achieved in   6 iterations

     Writing all to output data dir ./tmp/graphene.save/ :
     XML data file, charge density, pseudopotentials, collected wavefunctions

     init_run     :      0.98s CPU      0.97s WALL (       1 calls)
     electrons    :      3.56s CPU      2.03s WALL (       1 calls)

     Called by init_run:
     wfcinit      :      0.18s CPU      0.12s WALL (       1 calls)
     potinit      :      0.25s CPU      0.29s WALL (       1 calls)
     hinit0       :      0.52s CPU      0.53s WALL (       1 calls)

     Called by electrons:
     c_bands      :      1.60s CPU      0.89s WALL (       6 calls)
     sum_band     :      0.62s CPU      0.28s WALL (       6 calls)
     v_of_rho     :      0.46s CPU      0.27s WALL (       7 calls)
     newd         :      0.12s CPU      0.12s WALL (       7 calls)
     PAW_pot      :      0.81s CPU      0.58s WALL (       7 calls)
     mix_rho      :      0.04s CPU      0.02s WALL (       6 calls)

     Called by c_bands:
     init_us_2    :      0.07s CPU      0.04s WALL (     156 calls)
     cegterg      :      1.51s CPU      0.83s WALL (      72 calls)

     Called by *egterg:
     cdiaghg      :      0.09s CPU      0.05s WALL (     398 calls)
     h_psi        :      1.31s CPU      0.74s WALL (     410 calls)
     s_psi        :      0.04s CPU      0.04s WALL (     410 calls)
     g_psi        :      0.02s CPU      0.01s WALL (     326 calls)

     Called by h_psi:
     h_psi:calbec :      0.04s CPU      0.03s WALL (     410 calls)
     vloc_psi     :      1.17s CPU      0.63s WALL (     410 calls)
     add_vuspsi   :      0.08s CPU      0.07s WALL (     410 calls)

     General routines
     calbec       :      0.05s CPU      0.03s WALL (     482 calls)
     fft          :      0.56s CPU      0.51s WALL (      89 calls)
     ffts         :      0.15s CPU      0.15s WALL (      13 calls)
     fftw         :      0.95s CPU      0.52s WALL (    4260 calls)
     interpolate  :      0.16s CPU      0.16s WALL (       7 calls)


     PWSCF        :      4.73s CPU      3.14s WALL


   This run was terminated on:   8:34:44   9Sep2025            

=------------------------------------------------------------------------------=
   JOB DONE.
=------------------------------------------------------------------------------=
