
     Program PWSCF v.7.4.1 starts on  9Sep2025 at  8:35:23 

     This program is part of the open-source Quantum ESPRESSO suite
     for quantum simulation of materials; please cite
         "P. Giannozzi et al., J. Phys.:Condens. Matter 21 395502 (2009);
         "P. Giannozzi et al., J. Phys.:Condens. Matter 29 465901 (2017);
         "P. Giannozzi et al., J. Chem. Phys. 152 154105 (2020);
          URL http://www.quantum-espresso.org", 
     in publications or presentations arising from this work. More details at
     http://www.quantum-espresso.org/quote

     Serial version
     7986 MiB available memory on the printing compute node when the environment starts

     Waiting for input...
     Reading input from standard input

     Current dimensions of program PWSCF are:
     Max number of different atomic species (ntypx) = 10
     Max number of k-points (npk) =  40000
     Max angular momentum in pseudopotentials (lmaxx) =  4
     file C.pbe-n-kjpaw_psl.1.0.0.UPF: wavefunction(s)  2S 2P renormalized


     G-vector sticks info
     --------------------
     sticks:   dense  smooth     PW     G-vecs:    dense   smooth      PW
     Sum         847     337    109               117349    29569    5211

     Using Slab Decomposition



     bravais-lattice index     =            4
     lattice parameter (alat)  =       4.6940  a.u.
     unit-cell volume          =     537.4167 (a.u.)^3
     number of atoms/cell      =            2
     number of atomic types    =            1
     number of electrons       =         8.00
     number of Kohn-Sham states=            8
     kinetic-energy cutoff     =      55.0000  Ry
     charge density cutoff     =     550.0000  Ry
     scf convergence threshold =      1.0E-08
     mixing beta               =       0.7000
     number of iterations used =            8  plain     mixing
     Exchange-correlation= SLA  PW   PBX  PBC
                           (   1   4   3   4   0   0   0)

     celldm(1)=   4.694000  celldm(2)=   0.000000  celldm(3)=   6.000000
     celldm(4)=   0.000000  celldm(5)=   0.000000  celldm(6)=   0.000000

     crystal axes: (cart. coord. in units of alat)
               a(1) = (   1.000000   0.000000   0.000000 )  
               a(2) = (  -0.500000   0.866025   0.000000 )  
               a(3) = (   0.000000   0.000000   6.000000 )  

     reciprocal axes: (cart. coord. in units 2 pi/alat)
               b(1) = (  1.000000  0.577350 -0.000000 )  
               b(2) = (  0.000000  1.154701  0.000000 )  
               b(3) = (  0.000000 -0.000000  0.166667 )  


     PseudoPot. # 1 for C  read from file:
     ../../../../../pseudos/C.pbe-n-kjpaw_psl.1.0.0.UPF
     MD5 check sum: 5d2aebdfa2cae82b50a7e79e9516da0f
     Pseudo is Projector augmented-wave + core cor, Zval =  4.0
     Generated using "atomic" code by A. Dal Corso  v.5.1
     Shape of augmentation charge: PSQ
     Using radial grid of 1073 points,  4 beta functions with: 
                l(1) =   0
                l(2) =   0
                l(3) =   1
                l(4) =   1
     Q(r) pseudized with 0 coefficients 


     atomic species   valence    mass     pseudopotential
     C                 4.00    12.01070     C ( 1.00)

     24 Sym. Ops., with inversion, found (12 have fractional translation)



   Cartesian axes

     site n.     atom                  positions (alat units)
         1        C      tau(   1) = (   0.0000000   0.0000000   0.0000000  )
         2        C      tau(   2) = (   0.0000000   0.5773503   0.0000000  )

     number of k points=    12  Gaussian smearing, width (Ry)=  0.0100
                       cart. coord. in units 2pi/alat
        k(    1) = (   0.0000000   0.0000000   0.0000000), wk =   0.0246914
        k(    2) = (   0.0000000   0.1283001   0.0000000), wk =   0.1481481
        k(    3) = (   0.0000000   0.2566001   0.0000000), wk =   0.1481481
        k(    4) = (   0.0000000   0.3849002   0.0000000), wk =   0.1481481
        k(    5) = (   0.0000000   0.5132002   0.0000000), wk =   0.1481481
        k(    6) = (   0.1111111   0.1924501   0.0000000), wk =   0.1481481
        k(    7) = (   0.1111111   0.3207501   0.0000000), wk =   0.2962963
        k(    8) = (   0.1111111   0.4490502   0.0000000), wk =   0.2962963
        k(    9) = (   0.1111111   0.5773503   0.0000000), wk =   0.1481481
        k(   10) = (   0.2222222   0.3849002   0.0000000), wk =   0.1481481
        k(   11) = (   0.2222222   0.5132002   0.0000000), wk =   0.2962963
        k(   12) = (   0.3333333   0.5773503   0.0000000), wk =   0.0493827

     Dense  grid:   117349 G-vectors     FFT dimensions: (  36,  36, 216)

     Smooth grid:    29569 G-vectors     FFT dimensions: (  24,  24, 135)

     Estimated max dynamical RAM per process >     155.24 MB

     Check: negative core charge=   -0.000001

     Initial potential from superposition of free atoms

     starting charge       7.9999, renormalised to       8.0000

     negative rho (up, down):  3.030E-05 0.000E+00
     Starting wfcs are    8 randomized atomic wfcs

     total cpu time spent up to now is        2.4 secs

     Self-consistent Calculation

     iteration #  1     ecut=    55.00 Ry     beta= 0.70
     Davidson diagonalization with overlap
     ethr =  1.00E-02,  avg # of iterations =  5.9

     negative rho (up, down):  2.811E-05 0.000E+00

     total cpu time spent up to now is        3.8 secs

     total energy              =     -36.86037919 Ry
     estimated scf accuracy    <       0.18204994 Ry

     iteration #  2     ecut=    55.00 Ry     beta= 0.70
     Davidson diagonalization with overlap
     ethr =  2.28E-03,  avg # of iterations =  4.4

     negative rho (up, down):  3.205E-05 0.000E+00

     total cpu time spent up to now is        5.0 secs

     total energy              =     -36.88568860 Ry
     estimated scf accuracy    <       0.00201233 Ry

     iteration #  3     ecut=    55.00 Ry     beta= 0.70
     Davidson diagonalization with overlap
     ethr =  2.52E-05,  avg # of iterations =  9.3

     negative rho (up, down):  3.694E-05 0.000E+00

     total cpu time spent up to now is        6.8 secs

     total energy              =     -36.88592651 Ry
     estimated scf accuracy    <       0.00015212 Ry

     iteration #  4     ecut=    55.00 Ry     beta= 0.70
     Davidson diagonalization with overlap
     ethr =  1.90E-06,  avg # of iterations =  4.2

     negative rho (up, down):  3.706E-05 0.000E+00

     total cpu time spent up to now is        8.1 secs

     total energy              =     -36.88593848 Ry
     estimated scf accuracy    <       0.00000122 Ry

     iteration #  5     ecut=    55.00 Ry     beta= 0.70
     Davidson diagonalization with overlap
     ethr =  1.52E-08,  avg # of iterations =  3.3

     negative rho (up, down):  3.699E-05 0.000E+00

     total cpu time spent up to now is       10.7 secs

     total energy              =     -36.88593939 Ry
     estimated scf accuracy    <       0.00000003 Ry

     iteration #  6     ecut=    55.00 Ry     beta= 0.70
     Davidson diagonalization with overlap
     ethr =  4.22E-10,  avg # of iterations =  2.2

     negative rho (up, down):  3.696E-05 0.000E+00

     total cpu time spent up to now is       12.6 secs

     End of self-consistent calculation

          k = 0.0000 0.0000 0.0000 (  3739 PWs)   bands (ev):

   -21.1417  -9.2632  -4.8482  -4.8482   1.4733   2.3359   2.6668   4.6351

          k = 0.0000 0.1283 0.0000 (  3759 PWs)   bands (ev):

   -20.8543  -8.9216  -5.9544  -5.4073   1.8649   2.7301   3.0636   5.0251

          k = 0.0000 0.2566 0.0000 (  3718 PWs)   bands (ev):

   -19.9977  -8.4766  -7.9145  -6.5373   3.0387   3.9050   4.2539   5.9837

          k = 0.0000 0.3849 0.0000 (  3686 PWs)   bands (ev):

   -18.5934 -11.3698  -7.5370  -6.3220   3.0372   4.9783   5.7283   5.8894

          k = 0.0000 0.5132 0.0000 (  3662 PWs)   bands (ev):

   -16.7240 -14.0688  -8.0897  -4.5196   0.4082   5.4236   7.7020   8.5921

          k = 0.1111 0.1925 0.0000 (  3719 PWs)   bands (ev):

   -20.2822  -8.2464  -7.4995  -6.5262   2.6483   3.5164   3.8578   5.8020

          k = 0.1111 0.3208 0.0000 (  3702 PWs)   bands (ev):

   -19.1515  -9.9209  -7.8848  -6.9370   4.2107   4.2532   5.0936   5.4448

          k = 0.1111 0.4491 0.0000 (  3687 PWs)   bands (ev):

   -17.5016 -12.6401  -8.7520  -5.1477   1.4802   6.5071   6.7983   7.4016

          k = 0.1111 0.5774 0.0000 (  3682 PWs)   bands (ev):

   -15.8145 -14.7225  -9.0473  -3.8438  -0.1988   6.6086   9.4922   9.6550

          k = 0.2222 0.3849 0.0000 (  3705 PWs)   bands (ev):

   -17.7718 -11.4345  -9.8533  -5.3874   2.0838   6.1511   6.9696   7.4267

          k = 0.2222 0.5132 0.0000 (  3694 PWs)   bands (ev):

   -15.9562 -13.5077 -10.8430  -3.5524  -0.1039   8.7904   9.0293   9.4571

          k = 0.3333 0.5774 0.0000 (  3696 PWs)   bands (ev):

   -14.3325 -14.3325 -12.1996  -1.7859  -1.7859   8.7987  10.9353  10.9354

     the Fermi energy is    -1.7859 ev

!    total energy              =     -36.88593940 Ry
     total all-electron energy =      -152.414135 Ry
     estimated scf accuracy    <          1.2E-10 Ry
     smearing contrib. (-TS)   =      -0.00027861 Ry
     internal energy E=F+TS    =     -36.88566079 Ry

     The total energy is F=E-TS. E is the sum of the following terms:
     one-electron contribution =    -153.19568698 Ry
     hartree contribution      =      78.20085163 Ry
     xc contribution           =      -9.24140993 Ry
     ewald contribution        =      59.68301699 Ry
     one-center paw contrib.   =     -12.33243250 Ry

     convergence has been achieved in   6 iterations

     Writing all to output data dir ./tmp/graphene.save/ :
     XML data file, charge density, pseudopotentials, collected wavefunctions

     init_run     :      1.91s CPU      2.21s WALL (       1 calls)
     electrons    :     13.06s CPU     10.27s WALL (       1 calls)

     Called by init_run:
     wfcinit      :      0.61s CPU      0.75s WALL (       1 calls)
     potinit      :      0.47s CPU      0.53s WALL (       1 calls)
     hinit0       :      0.70s CPU      0.73s WALL (       1 calls)

     Called by electrons:
     c_bands      :      8.79s CPU      6.18s WALL (       6 calls)
     sum_band     :      2.24s CPU      1.66s WALL (       6 calls)
     v_of_rho     :      0.96s CPU      1.26s WALL (       7 calls)
     newd         :      0.52s CPU      0.73s WALL (       7 calls)
     PAW_pot      :      0.65s CPU      0.67s WALL (       7 calls)
     mix_rho      :      0.11s CPU      0.08s WALL (       6 calls)

     Called by c_bands:
     init_us_2    :      0.21s CPU      0.14s WALL (     156 calls)
     cegterg      :      8.49s CPU      5.99s WALL (      72 calls)

     Called by *egterg:
     cdiaghg      :      0.14s CPU      0.07s WALL (     425 calls)
     h_psi        :      7.87s CPU      5.97s WALL (     437 calls)
     s_psi        :      0.13s CPU      0.10s WALL (     437 calls)
     g_psi        :      0.06s CPU      0.02s WALL (     353 calls)

     Called by h_psi:
     h_psi:calbec :      0.20s CPU      0.16s WALL (     437 calls)
     vloc_psi     :      7.05s CPU      4.91s WALL (     437 calls)
     add_vuspsi   :      0.58s CPU      0.88s WALL (     437 calls)

     General routines
     calbec       :      0.23s CPU      0.18s WALL (     509 calls)
     fft          :      0.93s CPU      0.96s WALL (      89 calls)
     ffts         :      0.22s CPU      0.22s WALL (      13 calls)
     fftw         :      5.58s CPU      4.16s WALL (    4350 calls)
     interpolate  :      0.25s CPU      0.25s WALL (       7 calls)


     PWSCF        :     15.11s CPU     12.70s WALL


   This run was terminated on:   8:35:36   9Sep2025            

=------------------------------------------------------------------------------=
   JOB DONE.
=------------------------------------------------------------------------------=
