
     Program PWSCF v.7.4.1 starts on  9Sep2025 at 17:11:54 

     This program is part of the open-source Quantum ESPRESSO suite
     for quantum simulation of materials; please cite
         "P. Giannozzi et al., J. Phys.:Condens. Matter 21 395502 (2009);
         "P. Giannozzi et al., J. Phys.:Condens. Matter 29 465901 (2017);
         "P. Giannozzi et al., J. Chem. Phys. 152 154105 (2020);
          URL http://www.quantum-espresso.org", 
     in publications or presentations arising from this work. More details at
     http://www.quantum-espresso.org/quote

     Serial version
     21980 MiB available memory on the printing compute node when the environment starts

     Waiting for input...
     Reading input from standard input

     Current dimensions of program PWSCF are:
     Max number of different atomic species (ntypx) = 10
     Max number of k-points (npk) =  40000
     Max angular momentum in pseudopotentials (lmaxx) =  4
     file C.pbe-n-kjpaw_psl.1.0.0.UPF: wavefunction(s)  2S 2P renormalized


     G-vector sticks info
     --------------------
     sticks:   dense  smooth     PW     G-vecs:    dense   smooth      PW
     Sum         661     253     85                82267    20639    3715

     Using Slab Decomposition



     bravais-lattice index     =            4
     lattice parameter (alat)  =       4.6140  a.u.
     unit-cell volume          =     510.4047 (a.u.)^3
     number of atoms/cell      =            2
     number of atomic types    =            1
     number of electrons       =         8.00
     number of Kohn-Sham states=            8
     kinetic-energy cutoff     =      45.0000  Ry
     charge density cutoff     =     450.0000  Ry
     scf convergence threshold =      1.0E-08
     mixing beta               =       0.7000
     number of iterations used =            8  plain     mixing
     Exchange-correlation= SLA  PW   PBX  PBC
                           (   1   4   3   4   0   0   0)

     celldm(1)=   4.614000  celldm(2)=   0.000000  celldm(3)=   6.000000
     celldm(4)=   0.000000  celldm(5)=   0.000000  celldm(6)=   0.000000

     crystal axes: (cart. coord. in units of alat)
               a(1) = (   1.000000   0.000000   0.000000 )  
               a(2) = (  -0.500000   0.866025   0.000000 )  
               a(3) = (   0.000000   0.000000   6.000000 )  

     reciprocal axes: (cart. coord. in units 2 pi/alat)
               b(1) = (  1.000000  0.577350 -0.000000 )  
               b(2) = (  0.000000  1.154701  0.000000 )  
               b(3) = (  0.000000 -0.000000  0.166667 )  


     PseudoPot. # 1 for C  read from file:
     ../../../../../pseudos/C.pbe-n-kjpaw_psl.1.0.0.UPF
     MD5 check sum: 5d2aebdfa2cae82b50a7e79e9516da0f
     Pseudo is Projector augmented-wave + core cor, Zval =  4.0
     Generated using "atomic" code by A. Dal Corso  v.5.1
     Shape of augmentation charge: PSQ
     Using radial grid of 1073 points,  4 beta functions with: 
                l(1) =   0
                l(2) =   0
                l(3) =   1
                l(4) =   1
     Q(r) pseudized with 0 coefficients 


     atomic species   valence    mass     pseudopotential
     C                 4.00    12.01070     C ( 1.00)

     24 Sym. Ops., with inversion, found (12 have fractional translation)



   Cartesian axes

     site n.     atom                  positions (alat units)
         1        C      tau(   1) = (   0.0000000   0.0000000   0.0000000  )
         2        C      tau(   2) = (   0.0000000   0.5773503   0.0000000  )

     number of k points=     5  Gaussian smearing, width (Ry)=  0.0100
                       cart. coord. in units 2pi/alat
        k(    1) = (   0.0000000   0.0000000   0.0000000), wk =   0.0800000
        k(    2) = (   0.0000000   0.2309401   0.0000000), wk =   0.4800000
        k(    3) = (   0.0000000   0.4618802   0.0000000), wk =   0.4800000
        k(    4) = (   0.2000000   0.3464102   0.0000000), wk =   0.4800000
        k(    5) = (   0.2000000   0.5773503   0.0000000), wk =   0.4800000

     Dense  grid:    82267 G-vectors     FFT dimensions: (  36,  36, 192)

     Smooth grid:    20639 G-vectors     FFT dimensions: (  24,  24, 120)

     Estimated max dynamical RAM per process >     110.34 MB

     Initial potential from superposition of free atoms

     starting charge       7.9999, renormalised to       8.0000

     negative rho (up, down):  9.733E-06 0.000E+00
     Starting wfcs are    8 randomized atomic wfcs

     total cpu time spent up to now is        1.7 secs

     Self-consistent Calculation

     iteration #  1     ecut=    45.00 Ry     beta= 0.70
     Davidson diagonalization with overlap
     ethr =  1.00E-02,  avg # of iterations =  5.8

     negative rho (up, down):  2.384E-05 0.000E+00

     total cpu time spent up to now is        2.3 secs

     total energy              =     -36.85290366 Ry
     estimated scf accuracy    <       0.21281068 Ry

     iteration #  2     ecut=    45.00 Ry     beta= 0.70
     Davidson diagonalization with overlap
     ethr =  2.66E-03,  avg # of iterations =  2.0

     negative rho (up, down):  3.563E-05 0.000E+00

     total cpu time spent up to now is        2.8 secs

     total energy              =     -36.88379181 Ry
     estimated scf accuracy    <       0.00216145 Ry

     iteration #  3     ecut=    45.00 Ry     beta= 0.70
     Davidson diagonalization with overlap
     ethr =  2.70E-05,  avg # of iterations = 10.2

     negative rho (up, down):  4.296E-05 0.000E+00

     total cpu time spent up to now is        3.5 secs

     total energy              =     -36.88403912 Ry
     estimated scf accuracy    <       0.00016370 Ry

     iteration #  4     ecut=    45.00 Ry     beta= 0.70
     Davidson diagonalization with overlap
     ethr =  2.05E-06,  avg # of iterations =  5.8

     negative rho (up, down):  4.382E-05 0.000E+00

     total cpu time spent up to now is        4.0 secs

     total energy              =     -36.88404860 Ry
     estimated scf accuracy    <       0.00000149 Ry

     iteration #  5     ecut=    45.00 Ry     beta= 0.70
     Davidson diagonalization with overlap
     ethr =  1.86E-08,  avg # of iterations =  2.8

     negative rho (up, down):  4.396E-05 0.000E+00

     total cpu time spent up to now is        4.5 secs

     total energy              =     -36.88404968 Ry
     estimated scf accuracy    <       0.00000003 Ry

     iteration #  6     ecut=    45.00 Ry     beta= 0.70
     Davidson diagonalization with overlap
     ethr =  4.10E-10,  avg # of iterations =  2.6

     negative rho (up, down):  4.401E-05 0.000E+00

     total cpu time spent up to now is        4.9 secs

     End of self-consistent calculation

          k = 0.0000 0.0000 0.0000 (  2579 PWs)   bands (ev):

   -21.2956  -9.3535  -4.5647  -4.5647   1.5937   2.5021   2.9268   4.9437

          k = 0.0000 0.2309 0.0000 (  2597 PWs)   bands (ev):

   -20.3386  -8.2095  -7.7058  -6.0997   2.9040   3.8198   4.2582   6.2421

          k = 0.0000 0.4619 0.0000 (  2612 PWs)   bands (ev):

   -17.5449 -12.9876  -7.8030  -5.1054   1.7008   6.2505   6.8467   7.7710

          k = 0.2000 0.3464 0.0000 (  2587 PWs)   bands (ev):

   -18.4615 -10.5326  -9.1166  -6.0268   3.5075   5.5170   6.4153   6.9218

          k = 0.2000 0.5774 0.0000 (  2625 PWs)   bands (ev):

   -15.3060 -14.3840 -10.5114  -3.0670  -0.2037   9.6366   9.8783  10.4517

     the Fermi energy is    -1.1134 ev

!    total energy              =     -36.88404969 Ry
     total all-electron energy =      -152.412245 Ry
     estimated scf accuracy    <          6.5E-10 Ry
     smearing contrib. (-TS)   =      -0.00000000 Ry
     internal energy E=F+TS    =     -36.88404969 Ry

     The total energy is F=E-TS. E is the sum of the following terms:
     one-electron contribution =    -155.24065528 Ry
     hartree contribution      =      79.29414598 Ry
     xc contribution           =      -9.31996952 Ry
     ewald contribution        =      60.71783306 Ry
     one-center paw contrib.   =     -12.33540393 Ry

     convergence has been achieved in   6 iterations

     Writing all to output data dir ./tmp/graphene.save/ :
     XML data file, charge density, pseudopotentials, collected wavefunctions

     init_run     :      1.55s CPU      1.54s WALL (       1 calls)
     electrons    :      5.06s CPU      3.29s WALL (       1 calls)

     Called by init_run:
     wfcinit      :      0.36s CPU      0.30s WALL (       1 calls)
     potinit      :      0.55s CPU      0.57s WALL (       1 calls)
     hinit0       :      0.58s CPU      0.58s WALL (       1 calls)

     Called by electrons:
     c_bands      :      2.38s CPU      1.31s WALL (       6 calls)
     sum_band     :      1.19s CPU      0.61s WALL (       6 calls)
     v_of_rho     :      0.80s CPU      0.65s WALL (       7 calls)
     newd         :      0.25s CPU      0.36s WALL (       7 calls)
     PAW_pot      :      0.46s CPU      0.46s WALL (       7 calls)
     mix_rho      :      0.10s CPU      0.05s WALL (       6 calls)

     Called by c_bands:
     init_us_2    :      0.07s CPU      0.04s WALL (      65 calls)
     cegterg      :      2.30s CPU      1.26s WALL (      30 calls)

     Called by *egterg:
     cdiaghg      :      0.05s CPU      0.02s WALL (     176 calls)
     h_psi        :      2.34s CPU      1.41s WALL (     181 calls)
     s_psi        :      0.03s CPU      0.01s WALL (     181 calls)
     g_psi        :      0.02s CPU      0.01s WALL (     146 calls)

     Called by h_psi:
     h_psi:calbec :      0.05s CPU      0.03s WALL (     181 calls)
     vloc_psi     :      2.23s CPU      1.34s WALL (     181 calls)
     add_vuspsi   :      0.05s CPU      0.04s WALL (     181 calls)

     General routines
     calbec       :      0.06s CPU      0.03s WALL (     211 calls)
     fft          :      0.75s CPU      0.67s WALL (      89 calls)
     ffts         :      0.41s CPU      0.40s WALL (      13 calls)
     fftw         :      1.88s CPU      1.18s WALL (    1804 calls)
     interpolate  :      0.41s CPU      0.42s WALL (       7 calls)


     PWSCF        :      6.83s CPU      4.97s WALL


   This run was terminated on:  17:11:59   9Sep2025            

=------------------------------------------------------------------------------=
   JOB DONE.
=------------------------------------------------------------------------------=
