
     Program PWSCF v.7.4.1 starts on  9Sep2025 at 17: 0:50 

     This program is part of the open-source Quantum ESPRESSO suite
     for quantum simulation of materials; please cite
         "P. Giannozzi et al., J. Phys.:Condens. Matter 21 395502 (2009);
         "P. Giannozzi et al., J. Phys.:Condens. Matter 29 465901 (2017);
         "P. Giannozzi et al., J. Chem. Phys. 152 154105 (2020);
          URL http://www.quantum-espresso.org", 
     in publications or presentations arising from this work. More details at
     http://www.quantum-espresso.org/quote

     Serial version
     22157 MiB available memory on the printing compute node when the environment starts

     Waiting for input...
     Reading input from standard input

     Current dimensions of program PWSCF are:
     Max number of different atomic species (ntypx) = 10
     Max number of k-points (npk) =  40000
     Max angular momentum in pseudopotentials (lmaxx) =  4
     file C.pbe-n-kjpaw_psl.1.0.0.UPF: wavefunction(s)  2S 2P renormalized


     G-vector sticks info
     --------------------
     sticks:   dense  smooth     PW     G-vecs:    dense   smooth      PW
     Sum         673     271     85                86543    21859    3993

     Using Slab Decomposition



     bravais-lattice index     =            4
     lattice parameter (alat)  =       4.6940  a.u.
     unit-cell volume          =     537.4167 (a.u.)^3
     number of atoms/cell      =            2
     number of atomic types    =            1
     number of electrons       =         8.00
     number of Kohn-Sham states=            8
     kinetic-energy cutoff     =      45.0000  Ry
     charge density cutoff     =     450.0000  Ry
     scf convergence threshold =      1.0E-08
     mixing beta               =       0.7000
     number of iterations used =            8  plain     mixing
     Exchange-correlation= SLA  PW   PBX  PBC
                           (   1   4   3   4   0   0   0)

     celldm(1)=   4.694000  celldm(2)=   0.000000  celldm(3)=   6.000000
     celldm(4)=   0.000000  celldm(5)=   0.000000  celldm(6)=   0.000000

     crystal axes: (cart. coord. in units of alat)
               a(1) = (   1.000000   0.000000   0.000000 )  
               a(2) = (  -0.500000   0.866025   0.000000 )  
               a(3) = (   0.000000   0.000000   6.000000 )  

     reciprocal axes: (cart. coord. in units 2 pi/alat)
               b(1) = (  1.000000  0.577350 -0.000000 )  
               b(2) = (  0.000000  1.154701  0.000000 )  
               b(3) = (  0.000000 -0.000000  0.166667 )  


     PseudoPot. # 1 for C  read from file:
     ../../../../../pseudos/C.pbe-n-kjpaw_psl.1.0.0.UPF
     MD5 check sum: 5d2aebdfa2cae82b50a7e79e9516da0f
     Pseudo is Projector augmented-wave + core cor, Zval =  4.0
     Generated using "atomic" code by A. Dal Corso  v.5.1
     Shape of augmentation charge: PSQ
     Using radial grid of 1073 points,  4 beta functions with: 
                l(1) =   0
                l(2) =   0
                l(3) =   1
                l(4) =   1
     Q(r) pseudized with 0 coefficients 


     atomic species   valence    mass     pseudopotential
     C                 4.00    12.01070     C ( 1.00)

     24 Sym. Ops., with inversion, found (12 have fractional translation)



   Cartesian axes

     site n.     atom                  positions (alat units)
         1        C      tau(   1) = (   0.0000000   0.0000000   0.0000000  )
         2        C      tau(   2) = (   0.0000000   0.5773503   0.0000000  )

     number of k points=     7  Gaussian smearing, width (Ry)=  0.0100
                       cart. coord. in units 2pi/alat
        k(    1) = (   0.0000000   0.0000000   0.0000000), wk =   0.0555556
        k(    2) = (   0.0000000   0.1924501   0.0000000), wk =   0.3333333
        k(    3) = (   0.0000000   0.3849002   0.0000000), wk =   0.3333333
        k(    4) = (   0.0000000  -0.5773503   0.0000000), wk =   0.1666667
        k(    5) = (   0.1666667   0.2886751   0.0000000), wk =   0.3333333
        k(    6) = (   0.1666667   0.4811252   0.0000000), wk =   0.6666667
        k(    7) = (   0.3333333   0.5773503   0.0000000), wk =   0.1111111

     Dense  grid:    86543 G-vectors     FFT dimensions: (  36,  36, 192)

     Smooth grid:    21859 G-vectors     FFT dimensions: (  24,  24, 125)

     Estimated max dynamical RAM per process >     115.83 MB

     Initial potential from superposition of free atoms

     starting charge       7.9999, renormalised to       8.0000

     negative rho (up, down):  1.080E-05 0.000E+00
     Starting wfcs are    8 randomized atomic wfcs

     total cpu time spent up to now is        1.3 secs

     Self-consistent Calculation

     iteration #  1     ecut=    45.00 Ry     beta= 0.70
     Davidson diagonalization with overlap
     ethr =  1.00E-02,  avg # of iterations =  5.6

     negative rho (up, down):  2.523E-05 0.000E+00

     total cpu time spent up to now is        2.1 secs

     total energy              =     -36.85671288 Ry
     estimated scf accuracy    <       0.18380496 Ry

     iteration #  2     ecut=    45.00 Ry     beta= 0.70
     Davidson diagonalization with overlap
     ethr =  2.30E-03,  avg # of iterations =  3.3

     negative rho (up, down):  3.625E-05 0.000E+00

     total cpu time spent up to now is        2.7 secs

     total energy              =     -36.88282805 Ry
     estimated scf accuracy    <       0.00210608 Ry

     iteration #  3     ecut=    45.00 Ry     beta= 0.70
     Davidson diagonalization with overlap
     ethr =  2.63E-05,  avg # of iterations =  9.0

     negative rho (up, down):  4.346E-05 0.000E+00

     total cpu time spent up to now is        3.6 secs

     total energy              =     -36.88305067 Ry
     estimated scf accuracy    <       0.00015406 Ry

     iteration #  4     ecut=    45.00 Ry     beta= 0.70
     Davidson diagonalization with overlap
     ethr =  1.93E-06,  avg # of iterations =  3.9

     negative rho (up, down):  4.437E-05 0.000E+00

     total cpu time spent up to now is        4.2 secs

     total energy              =     -36.88305894 Ry
     estimated scf accuracy    <       0.00000105 Ry

     iteration #  5     ecut=    45.00 Ry     beta= 0.70
     Davidson diagonalization with overlap
     ethr =  1.31E-08,  avg # of iterations =  2.7

     negative rho (up, down):  4.449E-05 0.000E+00

     total cpu time spent up to now is        4.8 secs

     total energy              =     -36.88305956 Ry
     estimated scf accuracy    <       0.00000002 Ry

     iteration #  6     ecut=    45.00 Ry     beta= 0.70
     Davidson diagonalization with overlap
     ethr =  2.56E-10,  avg # of iterations =  2.4

     negative rho (up, down):  4.454E-05 0.000E+00

     total cpu time spent up to now is        5.4 secs

     End of self-consistent calculation

          k = 0.0000 0.0000 0.0000 (  2641 PWs)   bands (ev):

   -21.1398  -9.2621  -4.8463  -4.8463   1.5072   2.3958   2.8078   4.7450

          k = 0.0000 0.1925 0.0000 (  2705 PWs)   bands (ev):

   -20.4942  -8.4973  -7.1153  -5.9530   2.3869   3.2803   3.7017   5.6205

          k = 0.0000 0.3849 0.0000 (  2719 PWs)   bands (ev):

   -18.5913 -11.3679  -7.5353  -6.3209   3.0385   5.0056   5.7350   5.9446

          k = 0.0000-0.5774 0.0000 (  2762 PWs)   bands (ev):

   -15.9986 -14.8975  -8.1592  -4.1042  -0.1151   5.3881   9.2590   9.4072

          k = 0.1667 0.2887 0.0000 (  2747 PWs)   bands (ev):

   -19.2197  -9.5370  -8.1533  -7.0139   4.1438   4.4627   5.0347   5.4903

          k = 0.1667 0.4811 0.0000 (  2743 PWs)   bands (ev):

   -16.7737 -13.1221  -9.7665  -4.3885   0.6934   7.5957   8.0231   8.3843

          k = 0.3333 0.5774 0.0000 (  2769 PWs)   bands (ev):

   -14.3304 -14.3304 -12.1981  -1.7846  -1.7846   8.7991  10.9390  10.9391

     the Fermi energy is    -1.7846 ev

!    total energy              =     -36.88305957 Ry
     total all-electron energy =      -152.411255 Ry
     estimated scf accuracy    <          6.0E-10 Ry
     smearing contrib. (-TS)   =      -0.00062688 Ry
     internal energy E=F+TS    =     -36.88243269 Ry

     The total energy is F=E-TS. E is the sum of the following terms:
     one-electron contribution =    -153.19375405 Ry
     hartree contribution      =      78.20168527 Ry
     xc contribution           =      -9.24119550 Ry
     ewald contribution        =      59.68301699 Ry
     one-center paw contrib.   =     -12.33218540 Ry

     convergence has been achieved in   6 iterations

     Writing all to output data dir ./tmp/graphene.save/ :
     XML data file, charge density, pseudopotentials, collected wavefunctions

     init_run     :      1.24s CPU      1.20s WALL (       1 calls)
     electrons    :      6.32s CPU      4.09s WALL (       1 calls)

     Called by init_run:
     wfcinit      :      0.27s CPU      0.19s WALL (       1 calls)
     potinit      :      0.32s CPU      0.34s WALL (       1 calls)
     hinit0       :      0.58s CPU      0.58s WALL (       1 calls)

     Called by electrons:
     c_bands      :      3.48s CPU      1.94s WALL (       6 calls)
     sum_band     :      1.33s CPU      0.76s WALL (       6 calls)
     v_of_rho     :      0.80s CPU      0.65s WALL (       7 calls)
     newd         :      0.28s CPU      0.38s WALL (       7 calls)
     PAW_pot      :      0.46s CPU      0.46s WALL (       7 calls)
     mix_rho      :      0.09s CPU      0.06s WALL (       6 calls)

     Called by c_bands:
     init_us_2    :      0.09s CPU      0.05s WALL (      91 calls)
     cegterg      :      3.34s CPU      1.86s WALL (      42 calls)

     Called by *egterg:
     cdiaghg      :      0.07s CPU      0.03s WALL (     230 calls)
     h_psi        :      3.14s CPU      1.82s WALL (     237 calls)
     s_psi        :      0.04s CPU      0.02s WALL (     237 calls)
     g_psi        :      0.03s CPU      0.01s WALL (     188 calls)

     Called by h_psi:
     h_psi:calbec :      0.07s CPU      0.04s WALL (     237 calls)
     vloc_psi     :      2.93s CPU      1.68s WALL (     237 calls)
     add_vuspsi   :      0.12s CPU      0.09s WALL (     237 calls)

     General routines
     calbec       :      0.09s CPU      0.04s WALL (     279 calls)
     fft          :      0.74s CPU      0.67s WALL (      89 calls)
     ffts         :      0.18s CPU      0.17s WALL (      13 calls)
     fftw         :      2.41s CPU      1.47s WALL (    2474 calls)
     interpolate  :      0.18s CPU      0.18s WALL (       7 calls)


     PWSCF        :      7.79s CPU      5.43s WALL


   This run was terminated on:  17: 0:55   9Sep2025            

=------------------------------------------------------------------------------=
   JOB DONE.
=------------------------------------------------------------------------------=
