
     Program PWSCF v.7.4.1 starts on  9Sep2025 at 17: 0:40 

     This program is part of the open-source Quantum ESPRESSO suite
     for quantum simulation of materials; please cite
         "P. Giannozzi et al., J. Phys.:Condens. Matter 21 395502 (2009);
         "P. Giannozzi et al., J. Phys.:Condens. Matter 29 465901 (2017);
         "P. Giannozzi et al., J. Chem. Phys. 152 154105 (2020);
          URL http://www.quantum-espresso.org", 
     in publications or presentations arising from this work. More details at
     http://www.quantum-espresso.org/quote

     Serial version
     22125 MiB available memory on the printing compute node when the environment starts

     Waiting for input...
     Reading input from standard input

     Current dimensions of program PWSCF are:
     Max number of different atomic species (ntypx) = 10
     Max number of k-points (npk) =  40000
     Max angular momentum in pseudopotentials (lmaxx) =  4
     file C.pbe-n-kjpaw_psl.1.0.0.UPF: wavefunction(s)  2S 2P renormalized


     G-vector sticks info
     --------------------
     sticks:   dense  smooth     PW     G-vecs:    dense   smooth      PW
     Sum         673     271     85                86543    21859    3919

     Using Slab Decomposition



     bravais-lattice index     =            4
     lattice parameter (alat)  =       4.6940  a.u.
     unit-cell volume          =     537.4167 (a.u.)^3
     number of atoms/cell      =            2
     number of atomic types    =            1
     number of electrons       =         8.00
     number of Kohn-Sham states=            8
     kinetic-energy cutoff     =      45.0000  Ry
     charge density cutoff     =     450.0000  Ry
     scf convergence threshold =      1.0E-08
     mixing beta               =       0.7000
     number of iterations used =            8  plain     mixing
     Exchange-correlation= SLA  PW   PBX  PBC
                           (   1   4   3   4   0   0   0)

     celldm(1)=   4.694000  celldm(2)=   0.000000  celldm(3)=   6.000000
     celldm(4)=   0.000000  celldm(5)=   0.000000  celldm(6)=   0.000000

     crystal axes: (cart. coord. in units of alat)
               a(1) = (   1.000000   0.000000   0.000000 )  
               a(2) = (  -0.500000   0.866025   0.000000 )  
               a(3) = (   0.000000   0.000000   6.000000 )  

     reciprocal axes: (cart. coord. in units 2 pi/alat)
               b(1) = (  1.000000  0.577350 -0.000000 )  
               b(2) = (  0.000000  1.154701  0.000000 )  
               b(3) = (  0.000000 -0.000000  0.166667 )  


     PseudoPot. # 1 for C  read from file:
     ../../../../../pseudos/C.pbe-n-kjpaw_psl.1.0.0.UPF
     MD5 check sum: 5d2aebdfa2cae82b50a7e79e9516da0f
     Pseudo is Projector augmented-wave + core cor, Zval =  4.0
     Generated using "atomic" code by A. Dal Corso  v.5.1
     Shape of augmentation charge: PSQ
     Using radial grid of 1073 points,  4 beta functions with: 
                l(1) =   0
                l(2) =   0
                l(3) =   1
                l(4) =   1
     Q(r) pseudized with 0 coefficients 


     atomic species   valence    mass     pseudopotential
     C                 4.00    12.01070     C ( 1.00)

     24 Sym. Ops., with inversion, found (12 have fractional translation)



   Cartesian axes

     site n.     atom                  positions (alat units)
         1        C      tau(   1) = (   0.0000000   0.0000000   0.0000000  )
         2        C      tau(   2) = (   0.0000000   0.5773503   0.0000000  )

     number of k points=     5  Gaussian smearing, width (Ry)=  0.0100
                       cart. coord. in units 2pi/alat
        k(    1) = (   0.0000000   0.0000000   0.0000000), wk =   0.0800000
        k(    2) = (   0.0000000   0.2309401   0.0000000), wk =   0.4800000
        k(    3) = (   0.0000000   0.4618802   0.0000000), wk =   0.4800000
        k(    4) = (   0.2000000   0.3464102   0.0000000), wk =   0.4800000
        k(    5) = (   0.2000000   0.5773503   0.0000000), wk =   0.4800000

     Dense  grid:    86543 G-vectors     FFT dimensions: (  36,  36, 192)

     Smooth grid:    21859 G-vectors     FFT dimensions: (  24,  24, 125)

     Estimated max dynamical RAM per process >     115.16 MB

     Initial potential from superposition of free atoms

     starting charge       7.9999, renormalised to       8.0000

     negative rho (up, down):  1.080E-05 0.000E+00
     Starting wfcs are    8 randomized atomic wfcs

     total cpu time spent up to now is        1.3 secs

     Self-consistent Calculation

     iteration #  1     ecut=    45.00 Ry     beta= 0.70
     Davidson diagonalization with overlap
     ethr =  1.00E-02,  avg # of iterations =  5.6

     negative rho (up, down):  2.565E-05 0.000E+00

     total cpu time spent up to now is        1.9 secs

     total energy              =     -36.85831535 Ry
     estimated scf accuracy    <       0.18465338 Ry

     iteration #  2     ecut=    45.00 Ry     beta= 0.70
     Davidson diagonalization with overlap
     ethr =  2.31E-03,  avg # of iterations =  2.0

     negative rho (up, down):  3.703E-05 0.000E+00

     total cpu time spent up to now is        2.4 secs

     total energy              =     -36.88457536 Ry
     estimated scf accuracy    <       0.00208442 Ry

     iteration #  3     ecut=    45.00 Ry     beta= 0.70
     Davidson diagonalization with overlap
     ethr =  2.61E-05,  avg # of iterations = 10.6

     negative rho (up, down):  4.371E-05 0.000E+00

     total cpu time spent up to now is        3.1 secs

     total energy              =     -36.88478582 Ry
     estimated scf accuracy    <       0.00015850 Ry

     iteration #  4     ecut=    45.00 Ry     beta= 0.70
     Davidson diagonalization with overlap
     ethr =  1.98E-06,  avg # of iterations =  6.0

     negative rho (up, down):  4.445E-05 0.000E+00

     total cpu time spent up to now is        3.6 secs

     total energy              =     -36.88479367 Ry
     estimated scf accuracy    <       0.00000133 Ry

     iteration #  5     ecut=    45.00 Ry     beta= 0.70
     Davidson diagonalization with overlap
     ethr =  1.66E-08,  avg # of iterations =  2.8

     negative rho (up, down):  4.458E-05 0.000E+00

     total cpu time spent up to now is        4.1 secs

     total energy              =     -36.88479452 Ry
     estimated scf accuracy    <       0.00000003 Ry

     iteration #  6     ecut=    45.00 Ry     beta= 0.70
     Davidson diagonalization with overlap
     ethr =  3.21E-10,  avg # of iterations =  2.2

     negative rho (up, down):  4.464E-05 0.000E+00

     total cpu time spent up to now is        4.7 secs

     End of self-consistent calculation

          k = 0.0000 0.0000 0.0000 (  2641 PWs)   bands (ev):

   -21.1293  -9.2532  -4.8339  -4.8339   1.5083   2.3960   2.8069   4.7446

          k = 0.0000 0.2309 0.0000 (  2717 PWs)   bands (ev):

   -20.2012  -8.1566  -7.9037  -6.2917   2.7747   3.6676   4.0939   5.9933

          k = 0.0000 0.4619 0.0000 (  2734 PWs)   bands (ev):

   -17.4995 -13.0301  -7.9184  -5.1910   1.3421   5.5156   6.5672   7.4770

          k = 0.2000 0.3464 0.0000 (  2741 PWs)   bands (ev):

   -18.3827 -10.6914  -9.1705  -6.0680   3.0278   5.2986   6.1711   6.6682

          k = 0.2000 0.5774 0.0000 (  2767 PWs)   bands (ev):

   -15.3849 -14.3532 -10.5362  -3.2506  -0.4920   8.8021   9.4910  10.0368

     the Fermi energy is    -1.3103 ev

!    total energy              =     -36.88479453 Ry
     total all-electron energy =      -152.412990 Ry
     estimated scf accuracy    <          6.3E-10 Ry
     smearing contrib. (-TS)   =      -0.00000000 Ry
     internal energy E=F+TS    =     -36.88479453 Ry

     The total energy is F=E-TS. E is the sum of the following terms:
     one-electron contribution =    -153.20169144 Ry
     hartree contribution      =      78.20827464 Ry
     xc contribution           =      -9.24240304 Ry
     ewald contribution        =      59.68301699 Ry
     one-center paw contrib.   =     -12.33199168 Ry

     convergence has been achieved in   6 iterations

     Writing all to output data dir ./tmp/graphene.save/ :
     XML data file, charge density, pseudopotentials, collected wavefunctions

     init_run     :      1.18s CPU      1.17s WALL (       1 calls)
     electrons    :      5.22s CPU      3.36s WALL (       1 calls)

     Called by init_run:
     wfcinit      :      0.22s CPU      0.16s WALL (       1 calls)
     potinit      :      0.32s CPU      0.34s WALL (       1 calls)
     hinit0       :      0.57s CPU      0.58s WALL (       1 calls)

     Called by electrons:
     c_bands      :      2.46s CPU      1.33s WALL (       6 calls)
     sum_band     :      1.25s CPU      0.67s WALL (       6 calls)
     v_of_rho     :      0.76s CPU      0.63s WALL (       7 calls)
     newd         :      0.29s CPU      0.38s WALL (       7 calls)
     PAW_pot      :      0.46s CPU      0.46s WALL (       7 calls)
     mix_rho      :      0.11s CPU      0.06s WALL (       6 calls)

     Called by c_bands:
     init_us_2    :      0.06s CPU      0.04s WALL (      65 calls)
     cegterg      :      2.38s CPU      1.28s WALL (      30 calls)

     Called by *egterg:
     cdiaghg      :      0.06s CPU      0.02s WALL (     176 calls)
     h_psi        :      2.26s CPU      1.28s WALL (     181 calls)
     s_psi        :      0.02s CPU      0.01s WALL (     181 calls)
     g_psi        :      0.02s CPU      0.01s WALL (     146 calls)

     Called by h_psi:
     h_psi:calbec :      0.05s CPU      0.02s WALL (     181 calls)
     vloc_psi     :      2.14s CPU      1.21s WALL (     181 calls)
     add_vuspsi   :      0.06s CPU      0.05s WALL (     181 calls)

     General routines
     calbec       :      0.06s CPU      0.03s WALL (     211 calls)
     fft          :      0.76s CPU      0.67s WALL (      89 calls)
     ffts         :      0.19s CPU      0.18s WALL (      13 calls)
     fftw         :      1.78s CPU      1.05s WALL (    1798 calls)
     interpolate  :      0.19s CPU      0.19s WALL (       7 calls)


     PWSCF        :      6.61s CPU      4.68s WALL


   This run was terminated on:  17: 0:44   9Sep2025            

=------------------------------------------------------------------------------=
   JOB DONE.
=------------------------------------------------------------------------------=
