
     Program PWSCF v.7.4.1 starts on  9Sep2025 at  8: 2:29 

     This program is part of the open-source Quantum ESPRESSO suite
     for quantum simulation of materials; please cite
         "P. Giannozzi et al., J. Phys.:Condens. Matter 21 395502 (2009);
         "P. Giannozzi et al., J. Phys.:Condens. Matter 29 465901 (2017);
         "P. Giannozzi et al., J. Chem. Phys. 152 154105 (2020);
          URL http://www.quantum-espresso.org", 
     in publications or presentations arising from this work. More details at
     http://www.quantum-espresso.org/quote

     Serial version
     9015 MiB available memory on the printing compute node when the environment starts

     Waiting for input...
     Reading input from standard input

     Current dimensions of program PWSCF are:
     Max number of different atomic species (ntypx) = 10
     Max number of k-points (npk) =  40000
     Max angular momentum in pseudopotentials (lmaxx) =  4
     file C.pbe-n-kjpaw_psl.1.0.0.UPF: wavefunction(s)  2S 2P renormalized


     G-vector sticks info
     --------------------
     sticks:   dense  smooth     PW     G-vecs:    dense   smooth      PW
     Sum         367     151     55                34839     8939    1847

     Using Slab Decomposition



     bravais-lattice index     =            4
     lattice parameter (alat)  =       4.6540  a.u.
     unit-cell volume          =     523.7946 (a.u.)^3
     number of atoms/cell      =            2
     number of atomic types    =            1
     number of electrons       =         8.00
     number of Kohn-Sham states=            8
     kinetic-energy cutoff     =      25.0000  Ry
     charge density cutoff     =     250.0000  Ry
     scf convergence threshold =      1.0E-08
     mixing beta               =       0.7000
     number of iterations used =            8  plain     mixing
     Exchange-correlation= SLA  PW   PBX  PBC
                           (   1   4   3   4   0   0   0)

     celldm(1)=   4.654000  celldm(2)=   0.000000  celldm(3)=   6.000000
     celldm(4)=   0.000000  celldm(5)=   0.000000  celldm(6)=   0.000000

     crystal axes: (cart. coord. in units of alat)
               a(1) = (   1.000000   0.000000   0.000000 )  
               a(2) = (  -0.500000   0.866025   0.000000 )  
               a(3) = (   0.000000   0.000000   6.000000 )  

     reciprocal axes: (cart. coord. in units 2 pi/alat)
               b(1) = (  1.000000  0.577350 -0.000000 )  
               b(2) = (  0.000000  1.154701  0.000000 )  
               b(3) = (  0.000000 -0.000000  0.166667 )  


     PseudoPot. # 1 for C  read from file:
     ../../../../pseudos/C.pbe-n-kjpaw_psl.1.0.0.UPF
     MD5 check sum: 5d2aebdfa2cae82b50a7e79e9516da0f
     Pseudo is Projector augmented-wave + core cor, Zval =  4.0
     Generated using "atomic" code by A. Dal Corso  v.5.1
     Shape of augmentation charge: PSQ
     Using radial grid of 1073 points,  4 beta functions with: 
                l(1) =   0
                l(2) =   0
                l(3) =   1
                l(4) =   1
     Q(r) pseudized with 0 coefficients 


     atomic species   valence    mass     pseudopotential
     C                 4.00    12.01070     C ( 1.00)

     24 Sym. Ops., with inversion, found (12 have fractional translation)



   Cartesian axes

     site n.     atom                  positions (alat units)
         1        C      tau(   1) = (   0.0000000   0.0000000   0.0000000  )
         2        C      tau(   2) = (   0.0000000   0.5773503   0.0000000  )

     number of k points=    12  Gaussian smearing, width (Ry)=  0.0100
                       cart. coord. in units 2pi/alat
        k(    1) = (   0.0000000   0.0000000   0.0000000), wk =   0.0246914
        k(    2) = (   0.0000000   0.1283001   0.0000000), wk =   0.1481481
        k(    3) = (   0.0000000   0.2566001   0.0000000), wk =   0.1481481
        k(    4) = (   0.0000000   0.3849002   0.0000000), wk =   0.1481481
        k(    5) = (   0.0000000   0.5132002   0.0000000), wk =   0.1481481
        k(    6) = (   0.1111111   0.1924501   0.0000000), wk =   0.1481481
        k(    7) = (   0.1111111   0.3207501   0.0000000), wk =   0.2962963
        k(    8) = (   0.1111111   0.4490502   0.0000000), wk =   0.2962963
        k(    9) = (   0.1111111   0.5773503   0.0000000), wk =   0.1481481
        k(   10) = (   0.2222222   0.3849002   0.0000000), wk =   0.1481481
        k(   11) = (   0.2222222   0.5132002   0.0000000), wk =   0.2962963
        k(   12) = (   0.3333333   0.5773503   0.0000000), wk =   0.0493827

     Dense  grid:    34839 G-vectors     FFT dimensions: (  24,  24, 144)

     Smooth grid:     8939 G-vectors     FFT dimensions: (  15,  15,  90)

     Estimated max dynamical RAM per process >      46.29 MB

     Check: negative core charge=   -0.000010

     Initial potential from superposition of free atoms

     starting charge       7.9999, renormalised to       8.0000

     negative rho (up, down):  2.632E-04 0.000E+00
     Starting wfcs are    8 randomized atomic wfcs

     total cpu time spent up to now is        1.0 secs

     Self-consistent Calculation

     iteration #  1     ecut=    25.00 Ry     beta= 0.70
     Davidson diagonalization with overlap
     ethr =  1.00E-02,  avg # of iterations =  5.7

     negative rho (up, down):  4.116E-04 0.000E+00

     total cpu time spent up to now is        1.3 secs

     total energy              =     -36.81298231 Ry
     estimated scf accuracy    <       0.18929475 Ry

     iteration #  2     ecut=    25.00 Ry     beta= 0.70
     Davidson diagonalization with overlap
     ethr =  2.37E-03,  avg # of iterations =  3.3

     negative rho (up, down):  4.606E-04 0.000E+00

     total cpu time spent up to now is        1.6 secs

     total energy              =     -36.84081564 Ry
     estimated scf accuracy    <       0.00237481 Ry

     iteration #  3     ecut=    25.00 Ry     beta= 0.70
     Davidson diagonalization with overlap
     ethr =  2.97E-05,  avg # of iterations =  8.6

     negative rho (up, down):  4.982E-04 0.000E+00

     total cpu time spent up to now is        2.1 secs

     total energy              =     -36.84100782 Ry
     estimated scf accuracy    <       0.00016320 Ry

     iteration #  4     ecut=    25.00 Ry     beta= 0.70
     Davidson diagonalization with overlap
     ethr =  2.04E-06,  avg # of iterations =  4.6

     negative rho (up, down):  4.907E-04 0.000E+00

     total cpu time spent up to now is        2.4 secs

     total energy              =     -36.84101562 Ry
     estimated scf accuracy    <       0.00000049 Ry

     iteration #  5     ecut=    25.00 Ry     beta= 0.70
     Davidson diagonalization with overlap
     ethr =  6.10E-09,  avg # of iterations =  3.3

     negative rho (up, down):  4.903E-04 0.000E+00

     total cpu time spent up to now is        2.7 secs

     total energy              =     -36.84101624 Ry
     estimated scf accuracy    <       0.00000002 Ry

     iteration #  6     ecut=    25.00 Ry     beta= 0.70
     Davidson diagonalization with overlap
     ethr =  3.06E-10,  avg # of iterations =  2.1

     negative rho (up, down):  4.906E-04 0.000E+00

     total cpu time spent up to now is        3.0 secs

     End of self-consistent calculation

          k = 0.0000 0.0000 0.0000 (  1125 PWs)   bands (ev):

   -21.3178  -9.3045  -4.7063  -4.7063   1.3923   2.2130   2.4610   4.5219

          k = 0.0000 0.1283 0.0000 (  1121 PWs)   bands (ev):

   -21.0243  -8.9569  -5.8306  -5.2807   1.7926   2.6151   2.8638   4.9184

          k = 0.0000 0.2566 0.0000 (  1108 PWs)   bands (ev):

   -20.1487  -8.4029  -7.9221  -6.4376   2.9925   3.8165   4.0718   6.0638

          k = 0.0000 0.3849 0.0000 (  1102 PWs)   bands (ev):

   -18.7128 -11.3532  -7.4569  -6.2901   3.3209   4.9811   5.8446   5.9915

          k = 0.0000 0.5132 0.0000 (  1110 PWs)   bands (ev):

   -16.8008 -14.1133  -8.0312  -4.4341   0.5995   5.7434   7.7617   8.6122

          k = 0.1111 0.1925 0.0000 (  1121 PWs)   bands (ev):

   -20.4399  -8.2679  -7.4035  -6.4315   2.5931   3.4178   3.6697   5.7080

          k = 0.1111 0.3208 0.0000 (  1096 PWs)   bands (ev):

   -19.2839  -9.8667  -7.8149  -6.9217   4.1905   4.5896   5.0418   5.2803

          k = 0.1111 0.4491 0.0000 (  1102 PWs)   bands (ev):

   -17.5963 -12.6465  -8.7077  -5.0827   1.7196   6.5618   7.1255   7.3969

          k = 0.1111 0.5774 0.0000 (  1114 PWs)   bands (ev):

   -15.8564 -14.7963  -9.0131  -3.7308  -0.0240   6.9610   9.6164   9.7556

          k = 0.2222 0.3849 0.0000 (  1100 PWs)   bands (ev):

   -17.8737 -11.3975  -9.8494  -5.3309   2.3645   6.1760   6.9605   7.2908

          k = 0.2222 0.5132 0.0000 (  1105 PWs)   bands (ev):

   -16.0136 -13.5260 -10.8556  -3.4379   0.1049   8.8942   9.1571   9.8659

          k = 0.3333 0.5774 0.0000 (  1074 PWs)   bands (ev):

   -14.3371 -14.3371 -12.2707  -1.6118  -1.6118   8.9305  11.2646  11.2647

     the Fermi energy is    -1.6118 ev

!    total energy              =     -36.84101625 Ry
     total all-electron energy =      -152.369212 Ry
     estimated scf accuracy    <          1.2E-09 Ry
     smearing contrib. (-TS)   =      -0.00027861 Ry
     internal energy E=F+TS    =     -36.84073764 Ry

     The total energy is F=E-TS. E is the sum of the following terms:
     one-electron contribution =    -154.11107631 Ry
     hartree contribution      =      78.67993845 Ry
     xc contribution           =      -9.26853345 Ry
     ewald contribution        =      60.19597803 Ry
     one-center paw contrib.   =     -12.33704436 Ry

     convergence has been achieved in   6 iterations

     Writing all to output data dir ./tmp/graphene.save/ :
     XML data file, charge density, pseudopotentials, collected wavefunctions

     init_run     :      0.96s CPU      0.92s WALL (       1 calls)
     electrons    :      3.44s CPU      1.99s WALL (       1 calls)

     Called by init_run:
     wfcinit      :      0.18s CPU      0.12s WALL (       1 calls)
     potinit      :      0.24s CPU      0.26s WALL (       1 calls)
     hinit0       :      0.49s CPU      0.49s WALL (       1 calls)

     Called by electrons:
     c_bands      :      1.59s CPU      0.88s WALL (       6 calls)
     sum_band     :      0.58s CPU      0.28s WALL (       6 calls)
     v_of_rho     :      0.46s CPU      0.27s WALL (       7 calls)
     newd         :      0.11s CPU      0.10s WALL (       7 calls)
     PAW_pot      :      0.74s CPU      0.53s WALL (       7 calls)
     mix_rho      :      0.03s CPU      0.02s WALL (       6 calls)

     Called by c_bands:
     init_us_2    :      0.07s CPU      0.04s WALL (     156 calls)
     cegterg      :      1.50s CPU      0.83s WALL (      72 calls)

     Called by *egterg:
     cdiaghg      :      0.09s CPU      0.05s WALL (     403 calls)
     h_psi        :      1.25s CPU      0.73s WALL (     415 calls)
     s_psi        :      0.04s CPU      0.03s WALL (     415 calls)
     g_psi        :      0.02s CPU      0.01s WALL (     331 calls)

     Called by h_psi:
     h_psi:calbec :      0.04s CPU      0.03s WALL (     415 calls)
     vloc_psi     :      1.13s CPU      0.64s WALL (     415 calls)
     add_vuspsi   :      0.06s CPU      0.05s WALL (     415 calls)

     General routines
     calbec       :      0.05s CPU      0.03s WALL (     487 calls)
     fft          :      0.57s CPU      0.50s WALL (      89 calls)
     ffts         :      0.15s CPU      0.15s WALL (      13 calls)
     fftw         :      0.91s CPU      0.53s WALL (    4244 calls)
     interpolate  :      0.15s CPU      0.16s WALL (       7 calls)


     PWSCF        :      4.56s CPU      3.00s WALL


   This run was terminated on:   8: 2:32   9Sep2025            

=------------------------------------------------------------------------------=
   JOB DONE.
=------------------------------------------------------------------------------=
