
     Program PWSCF v.7.4.1 starts on  9Sep2025 at  8:42: 8 

     This program is part of the open-source Quantum ESPRESSO suite
     for quantum simulation of materials; please cite
         "P. Giannozzi et al., J. Phys.:Condens. Matter 21 395502 (2009);
         "P. Giannozzi et al., J. Phys.:Condens. Matter 29 465901 (2017);
         "P. Giannozzi et al., J. Chem. Phys. 152 154105 (2020);
          URL http://www.quantum-espresso.org", 
     in publications or presentations arising from this work. More details at
     http://www.quantum-espresso.org/quote

     Serial version
     7936 MiB available memory on the printing compute node when the environment starts

     Waiting for input...
     Reading input from standard input

     Current dimensions of program PWSCF are:
     Max number of different atomic species (ntypx) = 10
     Max number of k-points (npk) =  40000
     Max angular momentum in pseudopotentials (lmaxx) =  4
     file C.pbe-n-kjpaw_psl.1.0.0.UPF: wavefunction(s)  2S 2P renormalized


     G-vector sticks info
     --------------------
     sticks:   dense  smooth     PW     G-vecs:    dense   smooth      PW
     Sum         805     313    109               111147    27959    4921

     Using Slab Decomposition



     bravais-lattice index     =            4
     lattice parameter (alat)  =       4.6140  a.u.
     unit-cell volume          =     510.4047 (a.u.)^3
     number of atoms/cell      =            2
     number of atomic types    =            1
     number of electrons       =         8.00
     number of Kohn-Sham states=            8
     kinetic-energy cutoff     =      55.0000  Ry
     charge density cutoff     =     550.0000  Ry
     scf convergence threshold =      1.0E-08
     mixing beta               =       0.7000
     number of iterations used =            8  plain     mixing
     Exchange-correlation= SLA  PW   PBX  PBC
                           (   1   4   3   4   0   0   0)

     celldm(1)=   4.614000  celldm(2)=   0.000000  celldm(3)=   6.000000
     celldm(4)=   0.000000  celldm(5)=   0.000000  celldm(6)=   0.000000

     crystal axes: (cart. coord. in units of alat)
               a(1) = (   1.000000   0.000000   0.000000 )  
               a(2) = (  -0.500000   0.866025   0.000000 )  
               a(3) = (   0.000000   0.000000   6.000000 )  

     reciprocal axes: (cart. coord. in units 2 pi/alat)
               b(1) = (  1.000000  0.577350 -0.000000 )  
               b(2) = (  0.000000  1.154701  0.000000 )  
               b(3) = (  0.000000 -0.000000  0.166667 )  


     PseudoPot. # 1 for C  read from file:
     ../../../../../pseudos/C.pbe-n-kjpaw_psl.1.0.0.UPF
     MD5 check sum: 5d2aebdfa2cae82b50a7e79e9516da0f
     Pseudo is Projector augmented-wave + core cor, Zval =  4.0
     Generated using "atomic" code by A. Dal Corso  v.5.1
     Shape of augmentation charge: PSQ
     Using radial grid of 1073 points,  4 beta functions with: 
                l(1) =   0
                l(2) =   0
                l(3) =   1
                l(4) =   1
     Q(r) pseudized with 0 coefficients 


     atomic species   valence    mass     pseudopotential
     C                 4.00    12.01070     C ( 1.00)

     24 Sym. Ops., with inversion, found (12 have fractional translation)



   Cartesian axes

     site n.     atom                  positions (alat units)
         1        C      tau(   1) = (   0.0000000   0.0000000   0.0000000  )
         2        C      tau(   2) = (   0.0000000   0.5773503   0.0000000  )

     number of k points=    12  Gaussian smearing, width (Ry)=  0.0100
                       cart. coord. in units 2pi/alat
        k(    1) = (   0.0000000   0.0000000   0.0000000), wk =   0.0246914
        k(    2) = (   0.0000000   0.1283001   0.0000000), wk =   0.1481481
        k(    3) = (   0.0000000   0.2566001   0.0000000), wk =   0.1481481
        k(    4) = (   0.0000000   0.3849002   0.0000000), wk =   0.1481481
        k(    5) = (   0.0000000   0.5132002   0.0000000), wk =   0.1481481
        k(    6) = (   0.1111111   0.1924501   0.0000000), wk =   0.1481481
        k(    7) = (   0.1111111   0.3207501   0.0000000), wk =   0.2962963
        k(    8) = (   0.1111111   0.4490502   0.0000000), wk =   0.2962963
        k(    9) = (   0.1111111   0.5773503   0.0000000), wk =   0.1481481
        k(   10) = (   0.2222222   0.3849002   0.0000000), wk =   0.1481481
        k(   11) = (   0.2222222   0.5132002   0.0000000), wk =   0.2962963
        k(   12) = (   0.3333333   0.5773503   0.0000000), wk =   0.0493827

     Dense  grid:   111147 G-vectors     FFT dimensions: (  36,  36, 216)

     Smooth grid:    27959 G-vectors     FFT dimensions: (  24,  24, 135)

     Estimated max dynamical RAM per process >     148.10 MB

     Check: negative core charge=   -0.000001

     Initial potential from superposition of free atoms

     starting charge       7.9999, renormalised to       8.0000

     negative rho (up, down):  2.803E-05 0.000E+00
     Starting wfcs are    8 randomized atomic wfcs

     total cpu time spent up to now is        2.1 secs

     Self-consistent Calculation

     iteration #  1     ecut=    55.00 Ry     beta= 0.70
     Davidson diagonalization with overlap
     ethr =  1.00E-02,  avg # of iterations =  5.8

     negative rho (up, down):  2.593E-05 0.000E+00

     total cpu time spent up to now is        3.6 secs

     total energy              =     -36.85512403 Ry
     estimated scf accuracy    <       0.20989109 Ry

     iteration #  2     ecut=    55.00 Ry     beta= 0.70
     Davidson diagonalization with overlap
     ethr =  2.62E-03,  avg # of iterations =  4.3

     negative rho (up, down):  3.068E-05 0.000E+00

     total cpu time spent up to now is        4.7 secs

     total energy              =     -36.88494479 Ry
     estimated scf accuracy    <       0.00207242 Ry

     iteration #  3     ecut=    55.00 Ry     beta= 0.70
     Davidson diagonalization with overlap
     ethr =  2.59E-05,  avg # of iterations =  7.8

     negative rho (up, down):  3.598E-05 0.000E+00

     total cpu time spent up to now is        6.1 secs

     total energy              =     -36.88522551 Ry
     estimated scf accuracy    <       0.00015760 Ry

     iteration #  4     ecut=    55.00 Ry     beta= 0.70
     Davidson diagonalization with overlap
     ethr =  1.97E-06,  avg # of iterations =  4.1

     negative rho (up, down):  3.619E-05 0.000E+00

     total cpu time spent up to now is        7.3 secs

     total energy              =     -36.88523862 Ry
     estimated scf accuracy    <       0.00000144 Ry

     iteration #  5     ecut=    55.00 Ry     beta= 0.70
     Davidson diagonalization with overlap
     ethr =  1.80E-08,  avg # of iterations =  3.3

     negative rho (up, down):  3.614E-05 0.000E+00

     total cpu time spent up to now is        8.6 secs

     total energy              =     -36.88523960 Ry
     estimated scf accuracy    <       0.00000004 Ry

     iteration #  6     ecut=    55.00 Ry     beta= 0.70
     Davidson diagonalization with overlap
     ethr =  5.28E-10,  avg # of iterations =  2.3

     negative rho (up, down):  3.612E-05 0.000E+00

     total cpu time spent up to now is       10.7 secs

     End of self-consistent calculation

          k = 0.0000 0.0000 0.0000 (  3605 PWs)   bands (ev):

   -21.3089  -9.3644  -4.5801  -4.5801   1.5600   2.4451   2.7918   4.8365

          k = 0.0000 0.1283 0.0000 (  3565 PWs)   bands (ev):

   -21.0126  -9.0080  -5.7089  -5.1701   1.9652   2.8534   3.2023   5.2407

          k = 0.0000 0.2566 0.0000 (  3531 PWs)   bands (ev):

   -20.1292  -8.2948  -7.9569  -6.3576   3.1796   4.0712   4.4336   6.3941

          k = 0.0000 0.3849 0.0000 (  3530 PWs)   bands (ev):

   -18.6792 -11.2725  -7.4046  -6.2920   3.4910   5.1910   6.1309   6.3929

          k = 0.0000 0.5132 0.0000 (  3476 PWs)   bands (ev):

   -16.7329 -14.0714  -7.9823  -4.3981   0.7123   6.1770   8.0111   8.9331

          k = 0.1111 0.1925 0.0000 (  3549 PWs)   bands (ev):

   -20.4227  -8.3036  -7.2815  -6.3478   2.7757   3.6679   4.0238   6.0456

          k = 0.1111 0.3208 0.0000 (  3517 PWs)   bands (ev):

   -19.2560  -9.7686  -7.7632  -6.9357   4.3929   4.7815   5.3137   5.6658

          k = 0.1111 0.4491 0.0000 (  3503 PWs)   bands (ev):

   -17.5489 -12.5784  -8.6608  -5.0616   1.8590   6.7911   7.5499   7.6979

          k = 0.1111 0.5774 0.0000 (  3464 PWs)   bands (ev):

   -15.7430 -14.7920  -8.9664  -3.6862   0.0809   7.3941   9.8737  10.0306

          k = 0.2222 0.3849 0.0000 (  3521 PWs)   bands (ev):

   -17.8302 -11.2898  -9.8315  -5.3145   2.5150   6.4023   7.2485   7.7167

          k = 0.2222 0.5132 0.0000 (  3507 PWs)   bands (ev):

   -15.9403 -13.4533 -10.8418  -3.3882   0.2135   9.1466   9.3928  10.2857

          k = 0.3333 0.5774 0.0000 (  3462 PWs)   bands (ev):

   -14.2375 -14.2375 -12.3315  -1.5377  -1.5377   9.1217  11.5358  11.5364

     the Fermi energy is    -1.5377 ev

!    total energy              =     -36.88523962 Ry
     total all-electron energy =      -152.413435 Ry
     estimated scf accuracy    <          4.2E-10 Ry
     smearing contrib. (-TS)   =      -0.00027861 Ry
     internal energy E=F+TS    =     -36.88496100 Ry

     The total energy is F=E-TS. E is the sum of the following terms:
     one-electron contribution =    -155.23438871 Ry
     hartree contribution      =      79.28636048 Ry
     xc contribution           =      -9.31893284 Ry
     ewald contribution        =      60.71783306 Ry
     one-center paw contrib.   =     -12.33583299 Ry

     convergence has been achieved in   6 iterations

     Writing all to output data dir ./tmp/graphene.save/ :
     XML data file, charge density, pseudopotentials, collected wavefunctions

     init_run     :      1.90s CPU      2.03s WALL (       1 calls)
     electrons    :     11.37s CPU      8.61s WALL (       1 calls)

     Called by init_run:
     wfcinit      :      0.49s CPU      0.33s WALL (       1 calls)
     potinit      :      0.53s CPU      0.66s WALL (       1 calls)
     hinit0       :      0.75s CPU      0.90s WALL (       1 calls)

     Called by electrons:
     c_bands      :      7.72s CPU      5.18s WALL (       6 calls)
     sum_band     :      1.94s CPU      1.42s WALL (       6 calls)
     v_of_rho     :      0.88s CPU      1.04s WALL (       7 calls)
     newd         :      0.41s CPU      0.59s WALL (       7 calls)
     PAW_pot      :      0.58s CPU      0.63s WALL (       7 calls)
     mix_rho      :      0.10s CPU      0.09s WALL (       6 calls)

     Called by c_bands:
     init_us_2    :      0.17s CPU      0.14s WALL (     156 calls)
     cegterg      :      7.45s CPU      5.01s WALL (      72 calls)

     Called by *egterg:
     cdiaghg      :      0.13s CPU      0.06s WALL (     403 calls)
     h_psi        :      6.88s CPU      4.79s WALL (     415 calls)
     s_psi        :      0.09s CPU      0.06s WALL (     415 calls)
     g_psi        :      0.06s CPU      0.02s WALL (     331 calls)

     Called by h_psi:
     h_psi:calbec :      0.16s CPU      0.10s WALL (     415 calls)
     vloc_psi     :      6.30s CPU      4.07s WALL (     415 calls)
     add_vuspsi   :      0.37s CPU      0.61s WALL (     415 calls)

     General routines
     calbec       :      0.19s CPU      0.11s WALL (     487 calls)
     fft          :      0.87s CPU      1.00s WALL (      89 calls)
     ffts         :      0.23s CPU      0.26s WALL (      13 calls)
     fftw         :      4.92s CPU      3.31s WALL (    4358 calls)
     interpolate  :      0.26s CPU      0.29s WALL (       7 calls)


     PWSCF        :     13.44s CPU     10.76s WALL


   This run was terminated on:   8:42:19   9Sep2025            

=------------------------------------------------------------------------------=
   JOB DONE.
=------------------------------------------------------------------------------=
