
     Program PWSCF v.7.4.1 starts on  9Sep2025 at 17: 1:36 

     This program is part of the open-source Quantum ESPRESSO suite
     for quantum simulation of materials; please cite
         "P. Giannozzi et al., J. Phys.:Condens. Matter 21 395502 (2009);
         "P. Giannozzi et al., J. Phys.:Condens. Matter 29 465901 (2017);
         "P. Giannozzi et al., J. Chem. Phys. 152 154105 (2020);
          URL http://www.quantum-espresso.org", 
     in publications or presentations arising from this work. More details at
     http://www.quantum-espresso.org/quote

     Serial version
     22135 MiB available memory on the printing compute node when the environment starts

     Waiting for input...
     Reading input from standard input

     Current dimensions of program PWSCF are:
     Max number of different atomic species (ntypx) = 10
     Max number of k-points (npk) =  40000
     Max angular momentum in pseudopotentials (lmaxx) =  4
     file C.pbe-n-kjpaw_psl.1.0.0.UPF: wavefunction(s)  2S 2P renormalized


     G-vector sticks info
     --------------------
     sticks:   dense  smooth     PW     G-vecs:    dense   smooth      PW
     Sum         673     271     85                86543    21859    3919

     Using Slab Decomposition



     bravais-lattice index     =            4
     lattice parameter (alat)  =       4.6940  a.u.
     unit-cell volume          =     537.4167 (a.u.)^3
     number of atoms/cell      =            2
     number of atomic types    =            1
     number of electrons       =         8.00
     number of Kohn-Sham states=            8
     kinetic-energy cutoff     =      45.0000  Ry
     charge density cutoff     =     450.0000  Ry
     scf convergence threshold =      1.0E-08
     mixing beta               =       0.7000
     number of iterations used =            8  plain     mixing
     Exchange-correlation= SLA  PW   PBX  PBC
                           (   1   4   3   4   0   0   0)

     celldm(1)=   4.694000  celldm(2)=   0.000000  celldm(3)=   6.000000
     celldm(4)=   0.000000  celldm(5)=   0.000000  celldm(6)=   0.000000

     crystal axes: (cart. coord. in units of alat)
               a(1) = (   1.000000   0.000000   0.000000 )  
               a(2) = (  -0.500000   0.866025   0.000000 )  
               a(3) = (   0.000000   0.000000   6.000000 )  

     reciprocal axes: (cart. coord. in units 2 pi/alat)
               b(1) = (  1.000000  0.577350 -0.000000 )  
               b(2) = (  0.000000  1.154701  0.000000 )  
               b(3) = (  0.000000 -0.000000  0.166667 )  


     PseudoPot. # 1 for C  read from file:
     ../../../../../pseudos/C.pbe-n-kjpaw_psl.1.0.0.UPF
     MD5 check sum: 5d2aebdfa2cae82b50a7e79e9516da0f
     Pseudo is Projector augmented-wave + core cor, Zval =  4.0
     Generated using "atomic" code by A. Dal Corso  v.5.1
     Shape of augmentation charge: PSQ
     Using radial grid of 1073 points,  4 beta functions with: 
                l(1) =   0
                l(2) =   0
                l(3) =   1
                l(4) =   1
     Q(r) pseudized with 0 coefficients 


     atomic species   valence    mass     pseudopotential
     C                 4.00    12.01070     C ( 1.00)

     24 Sym. Ops., with inversion, found (12 have fractional translation)



   Cartesian axes

     site n.     atom                  positions (alat units)
         1        C      tau(   1) = (   0.0000000   0.0000000   0.0000000  )
         2        C      tau(   2) = (   0.0000000   0.5773503   0.0000000  )

     number of k points=    14  Gaussian smearing, width (Ry)=  0.0100
                       cart. coord. in units 2pi/alat
        k(    1) = (   0.0000000   0.0000000   0.0000000), wk =   0.0200000
        k(    2) = (   0.0000000   0.1154701   0.0000000), wk =   0.1200000
        k(    3) = (   0.0000000   0.2309401   0.0000000), wk =   0.1200000
        k(    4) = (   0.0000000   0.3464102   0.0000000), wk =   0.1200000
        k(    5) = (   0.0000000   0.4618802   0.0000000), wk =   0.1200000
        k(    6) = (   0.0000000  -0.5773503   0.0000000), wk =   0.0600000
        k(    7) = (   0.1000000   0.1732051   0.0000000), wk =   0.1200000
        k(    8) = (   0.1000000   0.2886751   0.0000000), wk =   0.2400000
        k(    9) = (   0.1000000   0.4041452   0.0000000), wk =   0.2400000
        k(   10) = (   0.1000000   0.5196152   0.0000000), wk =   0.2400000
        k(   11) = (   0.2000000   0.3464102   0.0000000), wk =   0.1200000
        k(   12) = (   0.2000000   0.4618802   0.0000000), wk =   0.2400000
        k(   13) = (   0.2000000   0.5773503   0.0000000), wk =   0.1200000
        k(   14) = (   0.3000000   0.5196152   0.0000000), wk =   0.1200000

     Dense  grid:    86543 G-vectors     FFT dimensions: (  36,  36, 192)

     Smooth grid:    21859 G-vectors     FFT dimensions: (  24,  24, 125)

     Estimated max dynamical RAM per process >     118.17 MB

     Initial potential from superposition of free atoms

     starting charge       7.9999, renormalised to       8.0000

     negative rho (up, down):  1.080E-05 0.000E+00
     Starting wfcs are    8 randomized atomic wfcs

     total cpu time spent up to now is        1.5 secs

     Self-consistent Calculation

     iteration #  1     ecut=    45.00 Ry     beta= 0.70
     Davidson diagonalization with overlap
     ethr =  1.00E-02,  avg # of iterations =  5.5

     negative rho (up, down):  2.563E-05 0.000E+00

     total cpu time spent up to now is        2.7 secs

     total energy              =     -36.86057695 Ry
     estimated scf accuracy    <       0.18365131 Ry

     iteration #  2     ecut=    45.00 Ry     beta= 0.70
     Davidson diagonalization with overlap
     ethr =  2.30E-03,  avg # of iterations =  3.6

     negative rho (up, down):  3.643E-05 0.000E+00

     total cpu time spent up to now is        3.7 secs

     total energy              =     -36.88667819 Ry
     estimated scf accuracy    <       0.00208534 Ry

     iteration #  3     ecut=    45.00 Ry     beta= 0.70
     Davidson diagonalization with overlap
     ethr =  2.61E-05,  avg # of iterations =  8.9

     negative rho (up, down):  4.353E-05 0.000E+00

     total cpu time spent up to now is        5.2 secs

     total energy              =     -36.88689259 Ry
     estimated scf accuracy    <       0.00015602 Ry

     iteration #  4     ecut=    45.00 Ry     beta= 0.70
     Davidson diagonalization with overlap
     ethr =  1.95E-06,  avg # of iterations =  4.8

     negative rho (up, down):  4.436E-05 0.000E+00

     total cpu time spent up to now is        6.1 secs

     total energy              =     -36.88690155 Ry
     estimated scf accuracy    <       0.00000117 Ry

     iteration #  5     ecut=    45.00 Ry     beta= 0.70
     Davidson diagonalization with overlap
     ethr =  1.46E-08,  avg # of iterations =  2.9

     negative rho (up, down):  4.448E-05 0.000E+00

     total cpu time spent up to now is        7.0 secs

     total energy              =     -36.88690225 Ry
     estimated scf accuracy    <       0.00000002 Ry

     iteration #  6     ecut=    45.00 Ry     beta= 0.70
     Davidson diagonalization with overlap
     ethr =  2.86E-10,  avg # of iterations =  2.4

     negative rho (up, down):  4.454E-05 0.000E+00

     total cpu time spent up to now is        7.8 secs

     End of self-consistent calculation

          k = 0.0000 0.0000 0.0000 (  2641 PWs)   bands (ev):

   -21.1418  -9.2635  -4.8491  -4.8491   1.5074   2.3960   2.8080   4.7451

          k = 0.0000 0.1155 0.0000 (  2701 PWs)   bands (ev):

   -20.9089  -8.9866  -5.7594  -5.3119   1.8242   2.7150   3.1298   5.0614

          k = 0.0000 0.2309 0.0000 (  2717 PWs)   bands (ev):

   -20.2138  -8.1671  -7.9181  -6.3065   2.7738   3.6676   4.0950   6.2547

          k = 0.0000 0.3464 0.0000 (  2731 PWs)   bands (ev):

   -19.0698 -10.5027  -7.2763  -6.8512   3.9319   4.3494   5.2886   5.6799

          k = 0.0000 0.4619 0.0000 (  2734 PWs)   bands (ev):

   -17.5125 -13.0435  -7.9329  -5.2018   1.3307   5.5035   6.5659   7.4765

          k = 0.0000-0.5774 0.0000 (  2762 PWs)   bands (ev):

   -16.0008 -14.8996  -8.1618  -4.1059  -0.1166   5.3862   9.2589   9.4076

          k = 0.1000 0.1732 0.0000 (  2715 PWs)   bands (ev):

   -20.4449  -8.4380  -7.0996  -6.2384   2.4578   3.3514   3.7737   5.6918

          k = 0.1000 0.2887 0.0000 (  2728 PWs)   bands (ev):

   -19.5253  -9.2379  -7.4602  -7.3660   3.7227   4.5997   5.0425   5.0608

          k = 0.1000 0.4041 0.0000 (  2739 PWs)   bands (ev):

   -18.1721 -11.7146  -8.3637  -5.8516   2.4632   5.6054   6.5138   6.6627

          k = 0.1000 0.5196 0.0000 (  2748 PWs)   bands (ev):

   -16.4693 -14.0539  -8.8333  -4.2456   0.2509   6.4209   8.1054   8.9508

          k = 0.2000 0.3464 0.0000 (  2741 PWs)   bands (ev):

   -18.3956 -10.7054  -9.1844  -6.0787   3.0158   5.2975   6.1708   6.6693

          k = 0.2000 0.4619 0.0000 (  2763 PWs)   bands (ev):

   -16.8677 -12.6676 -10.2458  -4.4410   0.8662   7.4713   8.2056   8.8702

          k = 0.2000 0.5774 0.0000 (  2767 PWs)   bands (ev):

   -15.3983 -14.3664 -10.5499  -3.2617  -0.5033   8.7894   9.4837  10.0350

          k = 0.3000 0.5196 0.0000 (  2775 PWs)   bands (ev):

   -15.2684 -13.6054 -11.8317  -2.7917  -0.7941   8.9073   9.8109  10.9892

     the Fermi energy is    -1.8089 ev

!    total energy              =     -36.88690226 Ry
     total all-electron energy =      -152.415098 Ry
     estimated scf accuracy    <          5.7E-10 Ry
     smearing contrib. (-TS)   =      -0.00000000 Ry
     internal energy E=F+TS    =     -36.88690226 Ry

     The total energy is F=E-TS. E is the sum of the following terms:
     one-electron contribution =    -153.19718144 Ry
     hartree contribution      =      78.20040073 Ry
     xc contribution           =      -9.24088954 Ry
     ewald contribution        =      59.68301699 Ry
     one-center paw contrib.   =     -12.33224901 Ry

     convergence has been achieved in   6 iterations

     Writing all to output data dir ./tmp/graphene.save/ :
     XML data file, charge density, pseudopotentials, collected wavefunctions

     init_run     :      1.43s CPU      1.34s WALL (       1 calls)
     electrons    :     10.52s CPU      6.37s WALL (       1 calls)

     Called by init_run:
     wfcinit      :      0.43s CPU      0.28s WALL (       1 calls)
     potinit      :      0.33s CPU      0.36s WALL (       1 calls)
     hinit0       :      0.60s CPU      0.61s WALL (       1 calls)

     Called by electrons:
     c_bands      :      7.13s CPU      3.94s WALL (       6 calls)
     sum_band     :      1.82s CPU      0.99s WALL (       6 calls)
     v_of_rho     :      0.80s CPU      0.66s WALL (       7 calls)
     newd         :      0.28s CPU      0.38s WALL (       7 calls)
     PAW_pot      :      0.51s CPU      0.51s WALL (       7 calls)
     mix_rho      :      0.11s CPU      0.05s WALL (       6 calls)

     Called by c_bands:
     init_us_2    :      0.21s CPU      0.11s WALL (     182 calls)
     cegterg      :      6.86s CPU      3.79s WALL (      84 calls)

     Called by *egterg:
     cdiaghg      :      0.15s CPU      0.06s WALL (     478 calls)
     h_psi        :      6.32s CPU      3.63s WALL (     492 calls)
     s_psi        :      0.09s CPU      0.06s WALL (     492 calls)
     g_psi        :      0.06s CPU      0.02s WALL (     394 calls)

     Called by h_psi:
     h_psi:calbec :      0.13s CPU      0.07s WALL (     492 calls)
     vloc_psi     :      5.95s CPU      3.40s WALL (     492 calls)
     add_vuspsi   :      0.19s CPU      0.14s WALL (     492 calls)

     General routines
     calbec       :      0.16s CPU      0.08s WALL (     576 calls)
     fft          :      0.80s CPU      0.71s WALL (      89 calls)
     ffts         :      0.18s CPU      0.17s WALL (      13 calls)
     fftw         :      5.01s CPU      2.98s WALL (    5048 calls)
     interpolate  :      0.19s CPU      0.19s WALL (       7 calls)


     PWSCF        :     12.16s CPU      7.85s WALL


   This run was terminated on:  17: 1:44   9Sep2025            

=------------------------------------------------------------------------------=
   JOB DONE.
=------------------------------------------------------------------------------=
