
     Program PWSCF v.7.4.1 starts on  9Sep2025 at  8:35:29 

     This program is part of the open-source Quantum ESPRESSO suite
     for quantum simulation of materials; please cite
         "P. Giannozzi et al., J. Phys.:Condens. Matter 21 395502 (2009);
         "P. Giannozzi et al., J. Phys.:Condens. Matter 29 465901 (2017);
         "P. Giannozzi et al., J. Chem. Phys. 152 154105 (2020);
          URL http://www.quantum-espresso.org", 
     in publications or presentations arising from this work. More details at
     http://www.quantum-espresso.org/quote

     Serial version
     7912 MiB available memory on the printing compute node when the environment starts

     Waiting for input...
     Reading input from standard input

     Current dimensions of program PWSCF are:
     Max number of different atomic species (ntypx) = 10
     Max number of k-points (npk) =  40000
     Max angular momentum in pseudopotentials (lmaxx) =  4
     file C.pbe-n-kjpaw_psl.1.0.0.UPF: wavefunction(s)  2S 2P renormalized


     G-vector sticks info
     --------------------
     sticks:   dense  smooth     PW     G-vecs:    dense   smooth      PW
     Sum         913     367    121               133563    33829    5933

     Using Slab Decomposition



     bravais-lattice index     =            4
     lattice parameter (alat)  =       4.6940  a.u.
     unit-cell volume          =     537.4167 (a.u.)^3
     number of atoms/cell      =            2
     number of atomic types    =            1
     number of electrons       =         8.00
     number of Kohn-Sham states=            8
     kinetic-energy cutoff     =      60.0000  Ry
     charge density cutoff     =     600.0000  Ry
     scf convergence threshold =      1.0E-08
     mixing beta               =       0.7000
     number of iterations used =            8  plain     mixing
     Exchange-correlation= SLA  PW   PBX  PBC
                           (   1   4   3   4   0   0   0)

     celldm(1)=   4.694000  celldm(2)=   0.000000  celldm(3)=   6.000000
     celldm(4)=   0.000000  celldm(5)=   0.000000  celldm(6)=   0.000000

     crystal axes: (cart. coord. in units of alat)
               a(1) = (   1.000000   0.000000   0.000000 )  
               a(2) = (  -0.500000   0.866025   0.000000 )  
               a(3) = (   0.000000   0.000000   6.000000 )  

     reciprocal axes: (cart. coord. in units 2 pi/alat)
               b(1) = (  1.000000  0.577350 -0.000000 )  
               b(2) = (  0.000000  1.154701  0.000000 )  
               b(3) = (  0.000000 -0.000000  0.166667 )  


     PseudoPot. # 1 for C  read from file:
     ../../../../../pseudos/C.pbe-n-kjpaw_psl.1.0.0.UPF
     MD5 check sum: 5d2aebdfa2cae82b50a7e79e9516da0f
     Pseudo is Projector augmented-wave + core cor, Zval =  4.0
     Generated using "atomic" code by A. Dal Corso  v.5.1
     Shape of augmentation charge: PSQ
     Using radial grid of 1073 points,  4 beta functions with: 
                l(1) =   0
                l(2) =   0
                l(3) =   1
                l(4) =   1
     Q(r) pseudized with 0 coefficients 


     atomic species   valence    mass     pseudopotential
     C                 4.00    12.01070     C ( 1.00)

     24 Sym. Ops., with inversion, found (12 have fractional translation)



   Cartesian axes

     site n.     atom                  positions (alat units)
         1        C      tau(   1) = (   0.0000000   0.0000000   0.0000000  )
         2        C      tau(   2) = (   0.0000000   0.5773503   0.0000000  )

     number of k points=    12  Gaussian smearing, width (Ry)=  0.0100
                       cart. coord. in units 2pi/alat
        k(    1) = (   0.0000000   0.0000000   0.0000000), wk =   0.0246914
        k(    2) = (   0.0000000   0.1283001   0.0000000), wk =   0.1481481
        k(    3) = (   0.0000000   0.2566001   0.0000000), wk =   0.1481481
        k(    4) = (   0.0000000   0.3849002   0.0000000), wk =   0.1481481
        k(    5) = (   0.0000000   0.5132002   0.0000000), wk =   0.1481481
        k(    6) = (   0.1111111   0.1924501   0.0000000), wk =   0.1481481
        k(    7) = (   0.1111111   0.3207501   0.0000000), wk =   0.2962963
        k(    8) = (   0.1111111   0.4490502   0.0000000), wk =   0.2962963
        k(    9) = (   0.1111111   0.5773503   0.0000000), wk =   0.1481481
        k(   10) = (   0.2222222   0.3849002   0.0000000), wk =   0.1481481
        k(   11) = (   0.2222222   0.5132002   0.0000000), wk =   0.2962963
        k(   12) = (   0.3333333   0.5773503   0.0000000), wk =   0.0493827

     Dense  grid:   133563 G-vectors     FFT dimensions: (  45,  45, 225)

     Smooth grid:    33829 G-vectors     FFT dimensions: (  24,  24, 144)

     Estimated max dynamical RAM per process >     186.06 MB

     Initial potential from superposition of free atoms

     starting charge       7.9999, renormalised to       8.0000

     negative rho (up, down):  4.739E-06 0.000E+00
     Starting wfcs are    8 randomized atomic wfcs

     total cpu time spent up to now is        3.0 secs

     Self-consistent Calculation

     iteration #  1     ecut=    60.00 Ry     beta= 0.70
     Davidson diagonalization with overlap
     ethr =  1.00E-02,  avg # of iterations =  6.2

     negative rho (up, down):  2.177E-06 0.000E+00

     total cpu time spent up to now is        5.6 secs

     total energy              =     -36.86103899 Ry
     estimated scf accuracy    <       0.18113592 Ry

     iteration #  2     ecut=    60.00 Ry     beta= 0.70
     Davidson diagonalization with overlap
     ethr =  2.26E-03,  avg # of iterations =  2.8

     negative rho (up, down):  4.139E-06 0.000E+00

     total cpu time spent up to now is        7.6 secs

     total energy              =     -36.88587823 Ry
     estimated scf accuracy    <       0.00195874 Ry

     iteration #  3     ecut=    60.00 Ry     beta= 0.70
     Davidson diagonalization with overlap
     ethr =  2.45E-05,  avg # of iterations = 10.3

     negative rho (up, down):  7.097E-06 0.000E+00

     total cpu time spent up to now is        9.9 secs

     total energy              =     -36.88613608 Ry
     estimated scf accuracy    <       0.00015296 Ry

     iteration #  4     ecut=    60.00 Ry     beta= 0.70
     Davidson diagonalization with overlap
     ethr =  1.91E-06,  avg # of iterations =  4.5

     negative rho (up, down):  6.850E-06 0.000E+00

     total cpu time spent up to now is       11.8 secs

     total energy              =     -36.88614887 Ry
     estimated scf accuracy    <       0.00000186 Ry

     iteration #  5     ecut=    60.00 Ry     beta= 0.70
     Davidson diagonalization with overlap
     ethr =  2.32E-08,  avg # of iterations =  3.0

     negative rho (up, down):  6.798E-06 0.000E+00

     total cpu time spent up to now is       14.8 secs

     total energy              =     -36.88614991 Ry
     estimated scf accuracy    <       0.00000005 Ry

     iteration #  6     ecut=    60.00 Ry     beta= 0.70
     Davidson diagonalization with overlap
     ethr =  6.30E-10,  avg # of iterations =  2.3

     negative rho (up, down):  6.789E-06 0.000E+00

     total cpu time spent up to now is       17.0 secs

     End of self-consistent calculation

          k = 0.0000 0.0000 0.0000 (  4227 PWs)   bands (ev):

   -21.1417  -9.2636  -4.8483  -4.8483   1.4841   2.3543   2.7084   4.6657

          k = 0.0000 0.1283 0.0000 (  4200 PWs)   bands (ev):

   -20.8542  -8.9219  -5.9545  -5.4074   1.8756   2.7483   3.1054   5.0559

          k = 0.0000 0.2566 0.0000 (  4218 PWs)   bands (ev):

   -19.9977  -8.4767  -7.9148  -6.5375   3.0488   3.9227   4.2960   5.9909

          k = 0.0000 0.3849 0.0000 (  4230 PWs)   bands (ev):

   -18.5935 -11.3701  -7.5372  -6.3222   3.0371   4.9870   5.7298   5.9064

          k = 0.0000 0.5132 0.0000 (  4236 PWs)   bands (ev):

   -16.7242 -14.0691  -8.0899  -4.5199   0.4080   5.4236   7.7097   8.6070

          k = 0.1111 0.1925 0.0000 (  4200 PWs)   bands (ev):

   -20.2823  -8.2468  -7.4996  -6.5264   2.6586   3.5343   3.8998   5.8328

          k = 0.1111 0.3208 0.0000 (  4223 PWs)   bands (ev):

   -19.1516  -9.9211  -7.8850  -6.9373   4.2202   4.2533   5.1107   5.4873

          k = 0.1111 0.4491 0.0000 (  4237 PWs)   bands (ev):

   -17.5018 -12.6404  -8.7523  -5.1480   1.4800   6.5138   6.8000   7.4168

          k = 0.1111 0.5774 0.0000 (  4246 PWs)   bands (ev):

   -15.8146 -14.7229  -9.0476  -3.8440  -0.1990   6.6086   9.4976   9.6617

          k = 0.2222 0.3849 0.0000 (  4182 PWs)   bands (ev):

   -17.7720 -11.4347  -9.8536  -5.3877   2.0837   6.1595   6.9842   7.4698

          k = 0.2222 0.5132 0.0000 (  4207 PWs)   bands (ev):

   -15.9564 -13.5079 -10.8433  -3.5525  -0.1040   8.7964   9.0328   9.4577

          k = 0.3333 0.5774 0.0000 (  4206 PWs)   bands (ev):

   -14.3326 -14.3326 -12.2000  -1.7860  -1.7860   8.7985  10.9361  10.9362

     the Fermi energy is    -1.7860 ev

!    total energy              =     -36.88614992 Ry
     total all-electron energy =      -152.414346 Ry
     estimated scf accuracy    <          2.0E-10 Ry
     smearing contrib. (-TS)   =      -0.00027861 Ry
     internal energy E=F+TS    =     -36.88587131 Ry

     The total energy is F=E-TS. E is the sum of the following terms:
     one-electron contribution =    -153.19567080 Ry
     hartree contribution      =      78.20090063 Ry
     xc contribution           =      -9.24158844 Ry
     ewald contribution        =      59.68301699 Ry
     one-center paw contrib.   =     -12.33252969 Ry

     convergence has been achieved in   6 iterations

     Writing all to output data dir ./tmp/graphene.save/ :
     XML data file, charge density, pseudopotentials, collected wavefunctions

     init_run     :      2.63s CPU      2.80s WALL (       1 calls)
     electrons    :     16.52s CPU     14.02s WALL (       1 calls)

     Called by init_run:
     wfcinit      :      0.85s CPU      0.82s WALL (       1 calls)
     potinit      :      0.95s CPU      1.07s WALL (       1 calls)
     hinit0       :      0.66s CPU      0.69s WALL (       1 calls)

     Called by electrons:
     c_bands      :     11.12s CPU      8.69s WALL (       6 calls)
     sum_band     :      2.44s CPU      1.80s WALL (       6 calls)
     v_of_rho     :      1.77s CPU      2.07s WALL (       7 calls)
     newd         :      0.66s CPU      0.98s WALL (       7 calls)
     PAW_pot      :      0.76s CPU      0.80s WALL (       7 calls)
     mix_rho      :      0.13s CPU      0.13s WALL (       6 calls)

     Called by c_bands:
     init_us_2    :      0.28s CPU      0.19s WALL (     156 calls)
     cegterg      :     10.74s CPU      8.43s WALL (      72 calls)

     Called by *egterg:
     cdiaghg      :      0.13s CPU      0.07s WALL (     422 calls)
     h_psi        :     10.34s CPU      8.38s WALL (     434 calls)
     s_psi        :      0.15s CPU      0.16s WALL (     434 calls)
     g_psi        :      0.06s CPU      0.03s WALL (     350 calls)

     Called by h_psi:
     h_psi:calbec :      0.22s CPU      0.19s WALL (     434 calls)
     vloc_psi     :      9.38s CPU      6.92s WALL (     434 calls)
     add_vuspsi   :      0.69s CPU      1.24s WALL (     434 calls)

     General routines
     calbec       :      0.25s CPU      0.21s WALL (     506 calls)
     fft          :      1.30s CPU      1.32s WALL (      89 calls)
     ffts         :      0.48s CPU      0.51s WALL (      13 calls)
     fftw         :      6.47s CPU      4.92s WALL (    4386 calls)
     interpolate  :      0.56s CPU      0.59s WALL (       7 calls)


     PWSCF        :     19.30s CPU     17.08s WALL


   This run was terminated on:   8:35:46   9Sep2025            

=------------------------------------------------------------------------------=
   JOB DONE.
=------------------------------------------------------------------------------=
