
     Program PWSCF v.7.4.1 starts on  9Sep2025 at  8: 6:23 

     This program is part of the open-source Quantum ESPRESSO suite
     for quantum simulation of materials; please cite
         "P. Giannozzi et al., J. Phys.:Condens. Matter 21 395502 (2009);
         "P. Giannozzi et al., J. Phys.:Condens. Matter 29 465901 (2017);
         "P. Giannozzi et al., J. Chem. Phys. 152 154105 (2020);
          URL http://www.quantum-espresso.org", 
     in publications or presentations arising from this work. More details at
     http://www.quantum-espresso.org/quote

     Serial version
     8638 MiB available memory on the printing compute node when the environment starts

     Waiting for input...
     Reading input from standard input

     Current dimensions of program PWSCF are:
     Max number of different atomic species (ntypx) = 10
     Max number of k-points (npk) =  40000
     Max angular momentum in pseudopotentials (lmaxx) =  4
     file C.pbe-n-kjpaw_psl.1.0.0.UPF: wavefunction(s)  2S 2P renormalized


     G-vector sticks info
     --------------------
     sticks:   dense  smooth     PW     G-vecs:    dense   smooth      PW
     Sum         955     379    121               146441    36917    6427

     Using Slab Decomposition



     bravais-lattice index     =            4
     lattice parameter (alat)  =       4.6540  a.u.
     unit-cell volume          =     523.7946 (a.u.)^3
     number of atoms/cell      =            2
     number of atomic types    =            1
     number of electrons       =         8.00
     number of Kohn-Sham states=            8
     kinetic-energy cutoff     =      65.0000  Ry
     charge density cutoff     =     650.0000  Ry
     scf convergence threshold =      1.0E-08
     mixing beta               =       0.7000
     number of iterations used =            8  plain     mixing
     Exchange-correlation= SLA  PW   PBX  PBC
                           (   1   4   3   4   0   0   0)

     celldm(1)=   4.654000  celldm(2)=   0.000000  celldm(3)=   6.000000
     celldm(4)=   0.000000  celldm(5)=   0.000000  celldm(6)=   0.000000

     crystal axes: (cart. coord. in units of alat)
               a(1) = (   1.000000   0.000000   0.000000 )  
               a(2) = (  -0.500000   0.866025   0.000000 )  
               a(3) = (   0.000000   0.000000   6.000000 )  

     reciprocal axes: (cart. coord. in units 2 pi/alat)
               b(1) = (  1.000000  0.577350 -0.000000 )  
               b(2) = (  0.000000  1.154701  0.000000 )  
               b(3) = (  0.000000 -0.000000  0.166667 )  


     PseudoPot. # 1 for C  read from file:
     ../../../../pseudos/C.pbe-n-kjpaw_psl.1.0.0.UPF
     MD5 check sum: 5d2aebdfa2cae82b50a7e79e9516da0f
     Pseudo is Projector augmented-wave + core cor, Zval =  4.0
     Generated using "atomic" code by A. Dal Corso  v.5.1
     Shape of augmentation charge: PSQ
     Using radial grid of 1073 points,  4 beta functions with: 
                l(1) =   0
                l(2) =   0
                l(3) =   1
                l(4) =   1
     Q(r) pseudized with 0 coefficients 


     atomic species   valence    mass     pseudopotential
     C                 4.00    12.01070     C ( 1.00)

     24 Sym. Ops., with inversion, found (12 have fractional translation)



   Cartesian axes

     site n.     atom                  positions (alat units)
         1        C      tau(   1) = (   0.0000000   0.0000000   0.0000000  )
         2        C      tau(   2) = (   0.0000000   0.5773503   0.0000000  )

     number of k points=    12  Gaussian smearing, width (Ry)=  0.0100
                       cart. coord. in units 2pi/alat
        k(    1) = (   0.0000000   0.0000000   0.0000000), wk =   0.0246914
        k(    2) = (   0.0000000   0.1283001   0.0000000), wk =   0.1481481
        k(    3) = (   0.0000000   0.2566001   0.0000000), wk =   0.1481481
        k(    4) = (   0.0000000   0.3849002   0.0000000), wk =   0.1481481
        k(    5) = (   0.0000000   0.5132002   0.0000000), wk =   0.1481481
        k(    6) = (   0.1111111   0.1924501   0.0000000), wk =   0.1481481
        k(    7) = (   0.1111111   0.3207501   0.0000000), wk =   0.2962963
        k(    8) = (   0.1111111   0.4490502   0.0000000), wk =   0.2962963
        k(    9) = (   0.1111111   0.5773503   0.0000000), wk =   0.1481481
        k(   10) = (   0.2222222   0.3849002   0.0000000), wk =   0.1481481
        k(   11) = (   0.2222222   0.5132002   0.0000000), wk =   0.2962963
        k(   12) = (   0.3333333   0.5773503   0.0000000), wk =   0.0493827

     Dense  grid:   146441 G-vectors     FFT dimensions: (  45,  45, 240)

     Smooth grid:    36917 G-vectors     FFT dimensions: (  24,  24, 144)

     Estimated max dynamical RAM per process >     203.05 MB

     Initial potential from superposition of free atoms

     starting charge       7.9999, renormalised to       8.0000

     negative rho (up, down):  2.309E-05 0.000E+00
     Starting wfcs are    8 randomized atomic wfcs

     total cpu time spent up to now is        2.3 secs

     Self-consistent Calculation

     iteration #  1     ecut=    65.00 Ry     beta= 0.70
     Davidson diagonalization with overlap
     ethr =  1.00E-02,  avg # of iterations =  5.4

     negative rho (up, down):  2.237E-05 0.000E+00

     total cpu time spent up to now is        4.0 secs

     total energy              =     -36.85982974 Ry
     estimated scf accuracy    <       0.19387248 Ry

     iteration #  2     ecut=    65.00 Ry     beta= 0.70
     Davidson diagonalization with overlap
     ethr =  2.42E-03,  avg # of iterations =  3.8

     negative rho (up, down):  2.757E-05 0.000E+00

     total cpu time spent up to now is        5.4 secs

     total energy              =     -36.88642796 Ry
     estimated scf accuracy    <       0.00196099 Ry

     iteration #  3     ecut=    65.00 Ry     beta= 0.70
     Davidson diagonalization with overlap
     c_bands:  1 eigenvalues not converged
     ethr =  2.45E-05,  avg # of iterations = 10.2

     negative rho (up, down):  3.235E-05 0.000E+00

     total cpu time spent up to now is        7.3 secs

     total energy              =     -36.88672473 Ry
     estimated scf accuracy    <       0.00015206 Ry

     iteration #  4     ecut=    65.00 Ry     beta= 0.70
     Davidson diagonalization with overlap
     ethr =  1.90E-06,  avg # of iterations =  4.3

     negative rho (up, down):  3.274E-05 0.000E+00

     total cpu time spent up to now is        8.7 secs

     total energy              =     -36.88673721 Ry
     estimated scf accuracy    <       0.00000199 Ry

     iteration #  5     ecut=    65.00 Ry     beta= 0.70
     Davidson diagonalization with overlap
     ethr =  2.49E-08,  avg # of iterations =  3.0

     negative rho (up, down):  3.274E-05 0.000E+00

     total cpu time spent up to now is       10.2 secs

     total energy              =     -36.88673831 Ry
     estimated scf accuracy    <       0.00000006 Ry

     iteration #  6     ecut=    65.00 Ry     beta= 0.70
     Davidson diagonalization with overlap
     ethr =  7.93E-10,  avg # of iterations =  2.4

     negative rho (up, down):  3.273E-05 0.000E+00

     total cpu time spent up to now is       11.5 secs

     End of self-consistent calculation

          k = 0.0000 0.0000 0.0000 (  4565 PWs)   bands (ev):

   -21.2252  -9.3140  -4.7172  -4.7172   1.5502   2.4497   2.8722   4.8474

          k = 0.0000 0.1283 0.0000 (  4585 PWs)   bands (ev):

   -20.9333  -8.9650  -5.8343  -5.2916   1.9479   2.8503   3.2762   5.2446

          k = 0.0000 0.2566 0.0000 (  4620 PWs)   bands (ev):

   -20.0635  -8.3879  -7.9362  -6.4500   3.1398   4.0443   4.4879   6.2744

          k = 0.0000 0.3849 0.0000 (  4602 PWs)   bands (ev):

   -18.6367 -11.3230  -7.4730  -6.3078   3.2613   5.1112   6.0639   6.0879

          k = 0.0000 0.5132 0.0000 (  4636 PWs)   bands (ev):

   -16.7291 -14.0719  -8.0381  -4.4603   0.5582   5.7956   7.8783   8.8087

          k = 0.1111 0.1925 0.0000 (  4612 PWs)   bands (ev):

   -20.3525  -8.2754  -7.3929  -6.4395   2.7435   3.6494   4.0847   6.0356

          k = 0.1111 0.3208 0.0000 (  4627 PWs)   bands (ev):

   -19.2041  -9.8467  -7.8263  -6.9370   4.3304   4.5158   5.2559   5.7007

          k = 0.1111 0.4491 0.0000 (  4652 PWs)   bands (ev):

   -17.5258 -12.6109  -8.7086  -5.1058   1.6670   6.6754   7.1696   7.5969

          k = 0.1111 0.5774 0.0000 (  4656 PWs)   bands (ev):

   -15.7805 -14.7578  -9.0090  -3.7667  -0.0609   6.9965   9.6970   9.8618

          k = 0.2222 0.3849 0.0000 (  4638 PWs)   bands (ev):

   -17.8016 -11.3642  -9.8442  -5.3521   2.2962   6.3013   7.1542   7.7186

          k = 0.2222 0.5132 0.0000 (  4664 PWs)   bands (ev):

   -15.9491 -13.4817 -10.8448  -3.4719   0.0524   8.9862   9.2198   9.8714

          k = 0.3333 0.5774 0.0000 (  4698 PWs)   bands (ev):

   -14.2869 -14.2869 -12.2662  -1.6639  -1.6639   8.9578  11.2404  11.2404

     the Fermi energy is    -1.6639 ev

!    total energy              =     -36.88673833 Ry
     total all-electron energy =      -152.414934 Ry
     estimated scf accuracy    <          5.8E-10 Ry
     smearing contrib. (-TS)   =      -0.00027861 Ry
     internal energy E=F+TS    =     -36.88645972 Ry

     The total energy is F=E-TS. E is the sum of the following terms:
     one-electron contribution =    -154.20749899 Ry
     hartree contribution      =      78.73932242 Ry
     xc contribution           =      -9.28002132 Ry
     ewald contribution        =      60.19597803 Ry
     one-center paw contrib.   =     -12.33423987 Ry

     convergence has been achieved in   6 iterations

     Writing all to output data dir ./tmp/graphene.save/ :
     XML data file, charge density, pseudopotentials, collected wavefunctions

     init_run     :      2.31s CPU      2.18s WALL (       1 calls)
     electrons    :     14.43s CPU      9.17s WALL (       1 calls)

     Called by init_run:
     wfcinit      :      0.76s CPU      0.55s WALL (       1 calls)
     potinit      :      0.69s CPU      0.73s WALL (       1 calls)
     hinit0       :      0.73s CPU      0.74s WALL (       1 calls)

     Called by electrons:
     c_bands      :      9.92s CPU      5.55s WALL (       6 calls)
     sum_band     :      2.54s CPU      1.43s WALL (       6 calls)
     v_of_rho     :      1.06s CPU      1.19s WALL (       7 calls)
     newd         :      0.51s CPU      0.68s WALL (       7 calls)
     PAW_pot      :      0.47s CPU      0.47s WALL (       7 calls)
     mix_rho      :      0.13s CPU      0.11s WALL (       6 calls)

     Called by c_bands:
     init_us_2    :      0.25s CPU      0.16s WALL (     156 calls)
     cegterg      :      9.56s CPU      5.35s WALL (      72 calls)

     Called by *egterg:
     cdiaghg      :      0.15s CPU      0.06s WALL (     422 calls)
     h_psi        :      8.94s CPU      5.24s WALL (     434 calls)
     s_psi        :      0.12s CPU      0.06s WALL (     434 calls)
     g_psi        :      0.09s CPU      0.03s WALL (     350 calls)

     Called by h_psi:
     h_psi:calbec :      0.19s CPU      0.10s WALL (     434 calls)
     vloc_psi     :      8.40s CPU      4.88s WALL (     434 calls)
     add_vuspsi   :      0.29s CPU      0.24s WALL (     434 calls)

     General routines
     calbec       :      0.23s CPU      0.11s WALL (     506 calls)
     fft          :      1.12s CPU      1.09s WALL (      89 calls)
     ffts         :      0.44s CPU      0.43s WALL (      13 calls)
     fftw         :      5.73s CPU      3.44s WALL (    4422 calls)
     interpolate  :      0.48s CPU      0.48s WALL (       7 calls)


     PWSCF        :     16.94s CPU     11.52s WALL


   This run was terminated on:   8: 6:34   9Sep2025            

=------------------------------------------------------------------------------=
   JOB DONE.
=------------------------------------------------------------------------------=
